<LesHouchesEvents version="3.0">
<header>
<!--
#*********************************************************************
#                                                                    *
#                        MadGraph5_aMC@NLO                           *
#                                                                    *
#                           Going Beyond                             *
#                                                                    *
#                   http://madgraph.hep.uiuc.edu                     *
#                   http://madgraph.phys.ucl.ac.be                   *
#                   http://amcatnlo.cern.ch                          *
#                                                                    *
#                     The MadGraph5_aMC@NLO team                     *
#                                                                    *
#....................................................................*
#                                                                    *
# This file contains all the information necessary to reproduce      *
# the events generated:                                              *
#                                                                    *
# 1. software version                                                *
# 2. proc_card          : code generation info including model       *
# 3. param_card         : model primary parameters in the LH format  *
# 4. run_card           : running parameters (collider and cuts)     *
# 5. pythia_card        : present only if pythia has been run        *
# 6. pgs_card           : present only if pgs has been run           *
# 7. delphes_cards      : present only if delphes has been run       *
#                                                                    *
#                                                                    *
#*********************************************************************
-->
<MGVersion>
#5.2.3.2.2
</MGVersion>
<MG5ProcCard>
#************************************************************
#*                     MadGraph5_aMC@NLO                    *
#*                                                          *
#*                *                       *                 *
#*                  *        * *        *                   *
#*                    * * * * 5 * * * *                     *
#*                  *        * *        *                   *
#*                *                       *                 *
#*                                                          *
#*                                                          *
#*         VERSION 2.3.2.2               2015-09-06         *
#*                                                          *
#*    The MadGraph5_aMC@NLO Development Team - Find us at   *
#*    https://server06.fynu.ucl.ac.be/projects/madgraph     *
#*                                                          *
#************************************************************
#*                                                          *
#*               Command File for MadGraph5_aMC@NLO         *
#*                                                          *
#*     run as ./bin/mg5_aMC  filename                       *
#*                                                          *
#************************************************************
set group_subprocesses Auto
set ignore_six_quark_processes False
set loop_color_flows False
set gauge unitary
set complex_mass_scheme False
set max_npoint_for_channel 0
import model sm
define p = g u c d s u~ c~ d~ s~
define j = g u c d s u~ c~ d~ s~
define l+ = e+ mu+
define l- = e- mu-
define vl = ve vm vt
define vl~ = ve~ vm~ vt~
set group_subprocesses Auto
set ignore_six_quark_processes False
set loop_optimized_output True
set complex_mass_scheme False
generate    p p > z z j j QED=4 QCD=0, z > e+ e-, z > mu+ mu-
output ZZj_2e2mu_ewk_v1
</MG5ProcCard>
<MGProcCard>
#*********************************************************************
#                        MadGraph/MadEvent                           *
#                   http://madgraph.hep.uiuc.edu                     *
#                                                                    *
#                          proc_card.dat                             *
#*********************************************************************
#                                                                    *
#            This Files is generated by MADGRAPH 5                   *
#                                                                    *
# WARNING: This Files is generated for MADEVENT (compatibility issue)*
#          This files is NOT a valid MG4 proc_card.dat               *
#          Running this in MG4 will NEVER reproduce the result of MG5*
#                                                                    *
#*********************************************************************
#*********************************************************************
# Process(es) requested : mg2 input                                  *
#*********************************************************************
# Begin PROCESS # This is TAG. Do not modify this line
p p > z z j j , z > e+ e- , z > mu+ mu-           #Process
# Be carefull the coupling are here in MG5 convention
QED=4
QCD=0
          
end_coup           # End the couplings input

done               # this tells MG there are no more procs
# End PROCESS  # This is TAG. Do not modify this line
#*********************************************************************
# Model information                                                  *
#*********************************************************************
# Begin MODEL  # This is TAG. Do not modify this line
sm
# End   MODEL  # This is TAG. Do not modify this line
#*********************************************************************
# Start multiparticle definitions                                    *
#*********************************************************************
# Begin MULTIPARTICLES # This is TAG. Do not modify this line

# End  MULTIPARTICLES # This is TAG. Do not modify this line
</MGProcCard>
<MGRunCard>
#*********************************************************************
#                       MadGraph5_aMC@NLO                            *
#                                                                    *
#                     run_card.dat MadEvent                          *
#                                                                    *
#  This file is used to set the parameters of the run.               *
#                                                                    *
#  Some notation/conventions:                                        *
#                                                                    *
#   Lines starting with a '# ' are info or comments                  *
#                                                                    *
#   mind the format:   value    = variable     ! comment             *
#*********************************************************************
#
#*******************                                                 
# Running parameters
#*******************                                                 
#                                                                    
#*********************************************************************
# Tag name for the run (one word)                                    *
#*********************************************************************
  tag_1     = run_tag ! name of the run 
#*********************************************************************
# Run to generate the grid pack                                      *
#*********************************************************************
  False     = gridpack  !True = setting up the grid pack
#*********************************************************************
# Number of events and rnd seed                                      *
# Warning: Do not generate more than 1M events in a single run       *
# If you want to run Pythia, avoid more than 50k events in a run.    *
#*********************************************************************
  40000 = nevents ! Number of unweighted events requested 
 36 = iseed   ! rnd seed (0=assigned automatically=default))
#*********************************************************************
# Collider type and energy                                           *
# lpp: 0=No PDF, 1=proton, -1=antiproton, 2=photon from proton,      *
#                                         3=photon from electron     *
#*********************************************************************
     1        = lpp1    ! beam 1 type 
     1        = lpp2    ! beam 2 type
     6500.0     = ebeam1  ! beam 1 total energy in GeV
     6500.0     = ebeam2  ! beam 2 total energy in GeV
#*********************************************************************
# Beam polarization from -100 (left-handed) to 100 (right-handed)    *
#*********************************************************************
     0.0     = polbeam1 ! beam polarization for beam 1
     0.0     = polbeam2 ! beam polarization for beam 2
#*********************************************************************
# PDF CHOICE: this automatically fixes also alpha_s and its evol.    *
#*********************************************************************
     nn23lo1    = pdlabel     ! PDF set                                     
     230000    = lhaid     ! if pdlabel=lhapdf, this is the lhapdf number
#*********************************************************************
# Renormalization and factorization scales                           *
#*********************************************************************
 False = fixed_ren_scale  ! if .true. use fixed ren scale
 False        = fixed_fac_scale  ! if .true. use fixed fac scale
 91.188  = scale            ! fixed ren scale
 91.188  = dsqrt_q2fact1    ! fixed fact scale for pdf1
 91.188  = dsqrt_q2fact2    ! fixed fact scale for pdf2
 -1 = dynamical_scale_choice ! Choose one of the preselected dynamical choices
 1.0  = scalefact        ! scale factor for event-by-event scales
#*********************************************************************
# Time of flight information. (-1 means not run)
#*********************************************************************
 -1.0 = time_of_flight ! threshold below which info is not written
#*********************************************************************
# Matching - Warning! ickkw > 1 is still beta
#*********************************************************************
 0 = ickkw            ! 0 no matching, 1 MLM, 2 CKKW matching
 1 = highestmult      ! for ickkw=2, highest mult group
 1 = ktscheme         ! for ickkw=1, 1 Durham kT, 2 Pythia pTE
 1.0 = alpsfact         ! scale factor for QCD emission vx
 False = chcluster        ! cluster only according to channel diag
 True = pdfwgt           ! for ickkw=1, perform pdf reweighting
 4 = asrwgtflavor     ! highest quark flavor for a_s reweight
 True = clusinfo         ! include clustering tag in output
 3.0 = lhe_version       ! Change the way clustering information pass to shower.        
#*********************************************************************
#**********************************************************
#
#**********************************************************
# Automatic ptj and mjj cuts if xqcut > 0
# (turn off for VBF and single top processes)
#**********************************************************
   False  = auto_ptj_mjj  ! Automatic setting of ptj and mjj
#**********************************************************
#                                                                    
#**********************************
# BW cutoff (M+/-bwcutoff*Gamma)
#**********************************
  15.0  = bwcutoff      ! (M+/-bwcutoff*Gamma)
#**********************************************************
# Apply pt/E/eta/dr/mij/kt_durham cuts on decay products or not
# (note that etmiss/ptll/ptheavy/ht/sorted cuts always apply)
#*************************************************************
   False  = cut_decays    ! Cut decay products 
#*************************************************************
# Number of helicities to sum per event (0 = all helicities)
# 0 gives more stable result, but longer run time (needed for
# long decay chains e.g.).
# Use >=2 if most helicities contribute, e.g. pure QCD.
#*************************************************************
   0  = nhel          ! Number of helicities used per event
#*******************                                                 
# Standard Cuts
#*******************                                                 
#                                                                    
#*********************************************************************
# Minimum and maximum pt's (for max, -1 means no cut)                *
#*********************************************************************
 10.0  = ptj       ! minimum pt for the jets 
 0.0  = ptb       ! minimum pt for the b 
 10.0  = pta       ! minimum pt for the photons 
 3.0  = ptl       ! minimum pt for the charged leptons 
 0.0  = misset    ! minimum missing Et (sum of neutrino's momenta)
 0.0  = ptheavy   ! minimum pt for one heavy final state
 -1.0  = ptjmax    ! maximum pt for the jets
 -1.0  = ptbmax    ! maximum pt for the b
 -1.0  = ptamax    ! maximum pt for the photons
 -1.0  = ptlmax    ! maximum pt for the charged leptons
 -1.0  = missetmax ! maximum missing Et (sum of neutrino's momenta)
#*********************************************************************
# Minimum and maximum E's (in the center of mass frame)              *
#*********************************************************************
  0.0  = ej     ! minimum E for the jets 
  0.0  = eb     ! minimum E for the b 
  0.0  = ea     ! minimum E for the photons 
  0.0  = el     ! minimum E for the charged leptons 
  -1.0   = ejmax ! maximum E for the jets
 -1.0   = ebmax ! maximum E for the b
 -1.0   = eamax ! maximum E for the photons
 -1.0   = elmax ! maximum E for the charged leptons
#*********************************************************************
# Maximum and minimum absolute rapidity (for max, -1 means no cut)   *
#*********************************************************************
  5.0 = etaj    ! max rap for the jets 
  -1.0  = etab    ! max rap for the b
 2.5  = etaa    ! max rap for the photons 
 3.0  = etal    ! max rap for the charged leptons 
 0.0  = etajmin ! min rap for the jets
 0.0  = etabmin ! min rap for the b
 0.0  = etaamin ! min rap for the photons
 0.0  = etalmin ! main rap for the charged leptons
#*********************************************************************
# Minimum and maximum DeltaR distance                                *
#*********************************************************************
 0.4 = drjj    ! min distance between jets 
 0.0   = drbb    ! min distance between b's 
 0.  = drll    ! min distance between leptons 
 0.4 = draa    ! min distance between gammas 
 0.0   = drbj    ! min distance between b and jet 
 0.4 = draj    ! min distance between gamma and jet 
 0.4 = drjl    ! min distance between jet and lepton 
 0.0   = drab    ! min distance between gamma and b 
 0.0   = drbl    ! min distance between b and lepton 
 0.4 = dral    ! min distance between gamma and lepton 
 -1.0  = drjjmax ! max distance between jets
 -1.0  = drbbmax ! max distance between b's
 -1.0  = drllmax ! max distance between leptons
 -1.0  = draamax ! max distance between gammas
 -1.0  = drbjmax ! max distance between b and jet
 -1.0  = drajmax ! max distance between gamma and jet
 -1.0  = drjlmax ! max distance between jet and lepton
 -1.0  = drabmax ! max distance between gamma and b
 -1.0  = drblmax ! max distance between b and lepton
 -1.0  = dralmax ! maxdistance between gamma and lepton
#*********************************************************************
# Minimum and maximum invariant mass for pairs                       *
# WARNING: for four lepton final state mmll cut require to have      *
#          different lepton masses for each flavor!                  *           
#*********************************************************************
 0.0   = mmjj    ! min invariant mass of a jet pair 
 0.0   = mmbb    ! min invariant mass of a b pair 
 0.0   = mmaa    ! min invariant mass of gamma gamma pair
 4.0   = mmll    ! min invariant mass of l+l- (same flavour) lepton pair
 -1.0  = mmjjmax ! max invariant mass of a jet pair
 -1.0  = mmbbmax ! max invariant mass of a b pair
 -1.0  = mmaamax ! max invariant mass of gamma gamma pair
 -1.0  = mmllmax ! max invariant mass of l+l- (same flavour) lepton pair
#*********************************************************************
# Minimum and maximum invariant mass for all letpons                 *
#*********************************************************************
 0.0   = mmnl    ! min invariant mass for all letpons (l+- and vl) 
 -1.0  = mmnlmax ! max invariant mass for all letpons (l+- and vl) 
#*********************************************************************
# Minimum and maximum pt for 4-momenta sum of leptons                *
#*********************************************************************
 0.0   = ptllmin  ! Minimum pt for 4-momenta sum of leptons(l and vl)
 -1.0  = ptllmax  ! Maximum pt for 4-momenta sum of leptons(l and vl)
#*********************************************************************
# Inclusive cuts                                                     *
#*********************************************************************
 0.0  = xptj ! minimum pt for at least one jet  
 0.0  = xptb ! minimum pt for at least one b 
 0.0  = xpta ! minimum pt for at least one photon 
 0.0  = xptl ! minimum pt for at least one charged lepton 
#*********************************************************************
# Control the pt's of the jets sorted by pt                          *
#*********************************************************************
 0.0   = ptj1min ! minimum pt for the leading jet in pt
 0.0   = ptj2min ! minimum pt for the second jet in pt
 0.0   = ptj3min ! minimum pt for the third jet in pt
 0.0   = ptj4min ! minimum pt for the fourth jet in pt
 -1.0  = ptj1max ! maximum pt for the leading jet in pt 
 -1.0  = ptj2max ! maximum pt for the second jet in pt
 -1.0  = ptj3max ! maximum pt for the third jet in pt
 -1.0  = ptj4max ! maximum pt for the fourth jet in pt
 0   = cutuse  ! reject event if fails any (0) / all (1) jet pt cuts
#*********************************************************************
# Control the pt's of leptons sorted by pt                           *
#*********************************************************************
 0.0   = ptl1min ! minimum pt for the leading lepton in pt
 0.0   = ptl2min ! minimum pt for the second lepton in pt
 0.0   = ptl3min ! minimum pt for the third lepton in pt
 0.0   = ptl4min ! minimum pt for the fourth lepton in pt
 -1.0  = ptl1max ! maximum pt for the leading lepton in pt 
 -1.0  = ptl2max ! maximum pt for the second lepton in pt
 -1.0  = ptl3max ! maximum pt for the third lepton in pt
 -1.0  = ptl4max ! maximum pt for the fourth lepton in pt
#*********************************************************************
# Control the Ht(k)=Sum of k leading jets                            *
#*********************************************************************
 0.0   = htjmin ! minimum jet HT=Sum(jet pt)
 -1.0  = htjmax ! maximum jet HT=Sum(jet pt)
 0.0   = ihtmin  !inclusive Ht for all partons (including b)
 -1.0  = ihtmax  !inclusive Ht for all partons (including b)
 0.0   = ht2min ! minimum Ht for the two leading jets
 0.0   = ht3min ! minimum Ht for the three leading jets
 0.0   = ht4min ! minimum Ht for the four leading jets
 -1.0  = ht2max ! maximum Ht for the two leading jets
 -1.0  = ht3max ! maximum Ht for the three leading jets
 -1.0  = ht4max ! maximum Ht for the four leading jets
#***********************************************************************
# Photon-isolation cuts, according to hep-ph/9801442                   *
# When ptgmin=0, all the other parameters are ignored                  *
# When ptgmin>0, pta and draj are not going to be used                 *
#***********************************************************************
 0.0 = ptgmin ! Min photon transverse momentum
 0.4 = R0gamma ! Radius of isolation code
 1.0 = xn ! n parameter of eq.(3.4) in hep-ph/9801442
 1.0 = epsgamma ! epsilon_gamma parameter of eq.(3.4) in hep-ph/9801442
 True = isoEM ! isolate photons from EM energy (photons and leptons)
#*********************************************************************
# WBF cuts                                                           *
#*********************************************************************
 0.0   = xetamin ! minimum rapidity for two jets in the WBF case  
 0.0   = deltaeta ! minimum rapidity for two jets in the WBF case 
#*********************************************************************
# KT DURHAM CUT                                                      *
#*********************************************************************
 -1.0    =  ktdurham        
 0.4  =  dparameter 
#*********************************************************************
# maximal pdg code for quark to be considered as a light jet         *
# (otherwise b cuts are applied)                                     *
#*********************************************************************
 4 = maxjetflavor    ! Maximum jet pdg code
#*********************************************************************
# Jet measure cuts                                                   *
#*********************************************************************
 0.0   = xqcut   ! minimum kt jet measure between partons
#*********************************************************************
#
#*********************************************************************
# Store info for systematics studies                                 *
# WARNING: If use_syst is T, matched Pythia output is                *
#          meaningful ONLY if plotted taking matchscale              *
#          reweighting into account!                                 *
#*********************************************************************
   True  = use_syst      ! Enable systematics studies
#
#**************************************
# Parameter of the systematics study
#  will be used by SysCalc (if installed)
#**************************************                                  
#
0.5 1 2 = sys_scalefact  # factorization/renormalization scale factor
0.5 1 2 = sys_alpsfact  # \alpha_s emission scale factors
30 50 = sys_matchscale # variation of merging scale
# PDF sets and number of members (0 or none for all members).
Ct10nlo.LHgrid = sys_pdf # matching scales
# MSTW2008nlo68cl.LHgrid 1  = sys_pdf
</MGRunCard>
<slha>
######################################################################
## PARAM_CARD AUTOMATICALY GENERATED BY MG5 FOLLOWING UFO MODEL   ####
######################################################################
##                                                                  ##
##  Width set on Auto will be computed following the information    ##
##        present in the decay.py files of the model.               ##
##        See  arXiv:1402.1178 for more details.                    ##
##                                                                  ##
######################################################################

###################################
## INFORMATION FOR MASS
###################################
Block mass 
    5 4.700000e+00 # MB 
    6 1.730000e+02 # MT 
   15 1.777000e+00 # MTA 
   23 9.118800e+01 # MZ 
   25 1.250000e+02 # MH 
## Dependent parameters, given by model restrictions.
## Those values should be edited following the 
## analytical expression. MG5 ignores those values 
## but they are important for interfacing the output of MG5
## to external program such as Pythia.
  1 0.000000 # d : 0.0 
  2 0.000000 # u : 0.0 
  3 0.000000 # s : 0.0 
  4 0.000000 # c : 0.0 
  11 0.000000 # e- : 0.0 
  12 0.000000 # ve : 0.0 
  13 0.000000 # mu- : 0.0 
  14 0.000000 # vm : 0.0 
  16 0.000000 # vt : 0.0 
  21 0.000000 # g : 0.0 
  22 0.000000 # a : 0.0 
  24 80.419002 # w+ : cmath.sqrt(MZ__exp__2/2. + cmath.sqrt(MZ__exp__4/4. - (aEW*cmath.pi*MZ__exp__2)/(Gf*sqrt__2))) 

###################################
## INFORMATION FOR SMINPUTS
###################################
Block sminputs 
    1 1.325070e+02 # aEWM1 
    2 1.166390e-05 # Gf 
    3 1.180000e-01 # aS 

###################################
## INFORMATION FOR YUKAWA
###################################
Block yukawa 
    5 4.700000e+00 # ymb 
    6 1.730000e+02 # ymt 
   15 1.777000e+00 # ymtau 

###################################
## INFORMATION FOR DECAY
###################################
DECAY   6 1.491500e+00 # WT 
DECAY  23 2.441404e+00 # WZ 
DECAY  24 2.047600e+00 # WW 
DECAY  25 6.382339e-03 # WH 
## Dependent parameters, given by model restrictions.
## Those values should be edited following the 
## analytical expression. MG5 ignores those values 
## but they are important for interfacing the output of MG5
## to external program such as Pythia.
DECAY  1 0.000000 # d : 0.0 
DECAY  2 0.000000 # u : 0.0 
DECAY  3 0.000000 # s : 0.0 
DECAY  4 0.000000 # c : 0.0 
DECAY  5 0.000000 # b : 0.0 
DECAY  11 0.000000 # e- : 0.0 
DECAY  12 0.000000 # ve : 0.0 
DECAY  13 0.000000 # mu- : 0.0 
DECAY  14 0.000000 # vm : 0.0 
DECAY  15 0.000000 # ta- : 0.0 
DECAY  16 0.000000 # vt : 0.0 
DECAY  21 0.000000 # g : 0.0 
DECAY  22 0.000000 # a : 0.0
</slha>
## END BANNER##
<MGGenerationInfo>
#  Number of Events        :        40000
#  Integrated weight (pb)  :  0.30754E-03
#  Truncated wgt (pb)      :  0.87200E-07
#  Unit wgt                :  0.76885E-08
</MGGenerationInfo>
</header>
<init>
     2212     2212  0.65000000000E+04  0.65000000000E+04 0 0  247000  247000  3   1
  0.30742683937E-03  0.33888525985E-06  0.76885000000E-08   0
<generator name='MadGraph5_aMC@NLO' version='#5.2.3.2.2'>please cite 1405.0301 </generator>
</init>
<event>
10   0  0.7688500E-08  0.1371419E+03  0.7546771E-02  0.1292259E+00
        4   -1    0    0  502    0  0.00000000000E+00  0.00000000000E+00  0.66745126874E+03  0.66745126874E+03  0.00000000000E+00 0. -1.
       -4   -1    0    0    0  501  0.00000000000E+00  0.00000000000E+00 -0.36977071373E+03  0.36977071373E+03  0.00000000000E+00 0.  1.
       23    2    1    2    0    0 -0.68612452752E+01  0.60515897694E+02  0.55675002138E+02  0.12324053400E+03  0.91538367902E+02 0.  0.
       23    2    1    2    0    0  0.48362312380E+02  0.22122408167E+02  0.23709663200E+03  0.25976005446E+03  0.91826786874E+02 0.  0.
      -11    1    3    3    0    0  0.24704403187E+02  0.31982834060E+01  0.52051908843E+02  0.57705612966E+02  0.00000000000E+00 0.  1.
       11    1    3    3    0    0 -0.31565648462E+02  0.57317614288E+02  0.36230932947E+01  0.65534921038E+02  0.00000000000E+00 0. -1.
      -13    1    4    4    0    0  0.86986166768E+01  0.45576753228E+02  0.55166066274E+02  0.72084681001E+02  0.00000000000E+00 0.  1.
       13    1    4    4    0    0  0.39663695703E+02 -0.23454345061E+02  0.18193056572E+03  0.18767537346E+03  0.00000000000E+00 0. -1.
        3    1    1    2  502    0  0.63682527807E+02  0.13729179896E+02  0.31034770716E+03  0.31711142217E+03  0.00000000000E+00 0. -1.
       -3    1    1    2    0  501 -0.10518359491E+03 -0.96367485757E+02 -0.30543878628E+03  0.33710997184E+03  0.00000000000E+00 0.  1.
<mgrwt>
<rscale>  0 0.94520885E+02</rscale>
<asrwt>0</asrwt>
<pdfrwt beam="1">  1        4 0.10268481E+00 0.65145642E+02</pdfrwt>
<pdfrwt beam="2">  1       -4 0.56887802E-01 0.13714191E+03</pdfrwt>
<totfact> 0.39745254E+00</totfact>
</mgrwt>
</event>
<event>
10   0  0.7688500E-08  0.1807795E+03  0.7546771E-02  0.1168407E+00
        2   -1    0    0  502    0  0.00000000000E+00  0.00000000000E+00  0.92847306346E+02  0.92847306346E+02  0.00000000000E+00 0. -1.
        1   -1    0    0  501    0  0.00000000000E+00  0.00000000000E+00 -0.33781478198E+04  0.33781478198E+04  0.00000000000E+00 0. -1.
       23    2    1    2    0    0  0.44168994373E+01 -0.14761892678E+02 -0.45346292909E+02  0.10615296954E+03  0.94735126462E+02 0.  0.
       23    2    1    2    0    0  0.14993549134E+02  0.20124531726E+01 -0.69391902293E+03  0.70012968563E+03  0.91810183719E+02 0.  0.
      -11    1    4    4    0    0 -0.36068864676E+02 -0.13629695571E+02 -0.34487780034E+03  0.34702655340E+03  0.00000000000E+00 0.  1.
       11    1    4    4    0    0  0.51062413809E+02  0.15642148743E+02 -0.34904122260E+03  0.35310313223E+03  0.00000000000E+00 0. -1.
      -13    1    3    3    0    0  0.25396362312E+02 -0.49206658609E+02 -0.30183604244E+02  0.63066000629E+02  0.00000000000E+00 0. -1.
       13    1    3    3    0    0 -0.20979462875E+02  0.34444765931E+02 -0.15162688665E+02  0.43086968913E+02  0.00000000000E+00 0.  1.
        2    1    1    2  501    0 -0.31864113576E+03  0.15135098413E+03 -0.19667781987E+04  0.19981631006E+04  0.00000000000E+00 0. -1.
        1    1    1    2  502    0  0.29923068719E+03 -0.13860154462E+03 -0.57925699891E+03  0.66654937035E+03  0.00000000000E+00 0. -1.
<mgrwt>
<rscale>  0 0.17937738E+03</rscale>
<asrwt>0</asrwt>
<pdfrwt beam="1">  1        2 0.14284201E-01 0.18077948E+03</pdfrwt>
<pdfrwt beam="2">  1        1 0.51971505E+00 0.17798614E+03</pdfrwt>
<totfact> 0.22987922E+01</totfact>
</mgrwt>
</event>
<event>
10   0  0.7688500E-08  0.1071207E+03  0.7546771E-02  0.1337532E+00
        1   -1    0    0  502    0  0.00000000000E+00  0.00000000000E+00  0.12975543901E+04  0.12975543901E+04  0.00000000000E+00 0. -1.
       -3   -1    0    0    0  501  0.00000000000E+00  0.00000000000E+00 -0.35176406420E+03  0.35176406420E+03  0.00000000000E+00 0.  1.
       23    2    1    2    0    0  0.45942392926E+02  0.55749802019E+02  0.25011009403E+03  0.27707884367E+03  0.94862440292E+02 0.  0.
       23    2    1    2    0    0 -0.69568650442E+02  0.48878009348E+02 -0.55859526989E+02  0.13501211956E+03  0.88764456565E+02 0.  0.
      -11    1    4    4    0    0 -0.21083997423E+02 -0.25738772943E+02 -0.21551418359E+02  0.39641935034E+02  0.00000000000E+00 0.  1.
       11    1    4    4    0    0 -0.48484653019E+02  0.74616782292E+02 -0.34308108630E+02  0.95370184521E+02  0.00000000000E+00 0. -1.
      -13    1    3    3    0    0  0.62456351137E+02  0.23359146012E+02  0.21996389022E+03  0.22984899064E+03  0.00000000000E+00 0.  1.
       13    1    3    3    0    0 -0.16513958211E+02  0.32390656007E+02  0.30146203818E+02  0.47229853028E+02  0.00000000000E+00 0. -1.
        2    1    1    2  502    0  0.55443376750E+02 -0.17773733386E+01  0.98162987960E+03  0.98319598637E+03  0.00000000000E+00 0. -1.
       -4    1    1    2    0  501 -0.31817119234E+02 -0.10285043803E+03 -0.23009012079E+03  0.25403150467E+03  0.00000000000E+00 0.  1.
<mgrwt>
<rscale>  0 0.77085581E+02</rscale>
<asrwt>0</asrwt>
<pdfrwt beam="1">  1        1 0.19962375E+00 0.55471858E+02</pdfrwt>
<pdfrwt beam="2">  1       -3 0.54117548E-01 0.10712074E+03</pdfrwt>
<totfact> 0.20203943E+01</totfact>
</mgrwt>
</event>
<event>
10   0  0.7688500E-08  0.1664544E+03  0.7546771E-02  0.1264425E+00
        2   -1    0    0  502    0  0.00000000000E+00  0.00000000000E+00  0.12286010645E+04  0.12286010645E+04  0.00000000000E+00 0. -1.
       -2   -1    0    0    0  501  0.00000000000E+00  0.00000000000E+00 -0.53155463476E+03  0.53155463476E+03  0.00000000000E+00 0.  1.
       23    2    1    2    0    0 -0.67152523292E+02 -0.45252312820E+01  0.16765845949E+03  0.20147066507E+03  0.89169113165E+02 0.  0.
       23    2    1    2    0    0  0.17218482244E+03  0.11417004923E+03 -0.67995379355E+02  0.23565923251E+03  0.90716531216E+02 0.  0.
      -11    1    4    4    0    0  0.17111835025E+03  0.81548451733E+02 -0.72011601032E+02  0.20277403793E+03  0.00000000000E+00 0.  1.
       11    1    4    4    0    0  0.10664721811E+01  0.32621597501E+02  0.40162216775E+01  0.32885194587E+02  0.00000000000E+00 0. -1.
      -13    1    3    3    0    0 -0.22152495951E+02  0.40747511006E+02  0.54627338175E+02  0.71660580559E+02  0.00000000000E+00 0. -1.
       13    1    3    3    0    0 -0.45000027341E+02 -0.45272742288E+02  0.11303112132E+03  0.12981008451E+03  0.00000000000E+00 0.  1.
        1    1    1    2  502    0 -0.17194496281E+03 -0.13020620454E+03  0.94455526665E+03  0.96886705884E+03  0.00000000000E+00 0. -1.
       -1    1    1    2    0  501  0.66912663668E+02  0.20561386592E+02 -0.34717191703E+03  0.35415874287E+03  0.00000000000E+00 0.  1.
<mgrwt>
<rscale>  0 0.10794397E+03</rscale>
<asrwt>0</asrwt>
<pdfrwt beam="1">  1        2 0.18901555E+00 0.16645445E+03</pdfrwt>
<pdfrwt beam="2">  1       -2 0.81777636E-01 0.70000537E+02</pdfrwt>
<totfact> 0.28111430E+01</totfact>
</mgrwt>
</event>
<event>
11   0  0.7688500E-08  0.9843905E+02  0.7546771E-02  0.1293178E+00
        2   -1    0    0  501    0  0.00000000000E+00  0.00000000000E+00  0.22786753705E+04  0.22786753705E+04  0.00000000000E+00 0. -1.
       -1   -1    0    0    0  501  0.00000000000E+00  0.00000000000E+00 -0.95667727239E+01  0.95667727239E+01  0.00000000000E+00 0.  1.
       23    2    1    2    0    0  0.96154652016E+01  0.32209978228E+02  0.98459589910E+03  0.98935865944E+03  0.90947966546E+02 0.  0.
       24    2    1    2    0    0 -0.36585743176E+01  0.13266091531E+02  0.82225807132E+03  0.82622705317E+03  0.79708426009E+02 0.  0.
       23    2    1    2    0    0 -0.59568908840E+01 -0.45476069758E+02  0.46225462739E+03  0.47265643065E+03  0.87299504150E+02 0.  0.
      -11    1    3    3    0    0  0.50078523390E+02  0.11183256856E+02  0.53696897182E+03  0.53941505395E+03  0.00000000000E+00 0.  1.
       11    1    3    3    0    0 -0.40463058188E+02  0.21026721371E+02  0.44762692728E+03  0.44994360549E+03  0.00000000000E+00 0. -1.
      -13    1    5    5    0    0 -0.18875106705E+02  0.20485706936E+02  0.19976132464E+03  0.20169412650E+03  0.00000000000E+00 0. -1.
       13    1    5    5    0    0  0.12918215821E+02 -0.65961776694E+02  0.26249330275E+03  0.27096230415E+03  0.00000000000E+00 0.  1.
        4    1    4    4  502    0 -0.31315796190E+02  0.27473532130E+02  0.28041353190E+03  0.28349113378E+03  0.00000000000E+00 0. -1.
       -3    1    4    4    0  502  0.27657221873E+02 -0.14207440599E+02  0.54184453942E+03  0.54273591939E+03  0.00000000000E+00 0.  1.
<mgrwt>
<rscale>  0 0.94116851E+02</rscale>
<asrwt>0</asrwt>
<pdfrwt beam="1">  1        2 0.35056544E+00 0.98439053E+02</pdfrwt>
<pdfrwt beam="2">  1       -1 0.14718112E-02 0.98439053E+02</pdfrwt>
<totfact> 0.63822556E+03</totfact>
</mgrwt>
</event>
<event>
11   0  0.7688500E-08  0.1443201E+03  0.7546771E-02  0.1214386E+00
       -1   -1    0    0    0  501  0.00000000000E+00  0.00000000000E+00  0.70290515656E+02  0.70290515656E+02  0.00000000000E+00 0.  1.
        2   -1    0    0  501    0  0.00000000000E+00  0.00000000000E+00 -0.11280408376E+04  0.11280408376E+04  0.00000000000E+00 0. -1.
       23    2    1    2    0    0 -0.98584973707E+02  0.66528314820E+01 -0.62753415182E+02  0.14893086063E+03  0.92082316014E+02 0.  0.
       24    2    1    2    0    0 -0.80283135445E+02 -0.50891626043E+02 -0.44143504916E+03  0.45878290378E+03  0.81126510654E+02 0.  0.
       23    2    1    2    0    0  0.17886810915E+03  0.44238794561E+02 -0.55356185764E+03  0.59061758890E+03  0.91910470894E+02 0.  0.
      -11    1    3    3    0    0 -0.78750493756E+02  0.25009774846E+02 -0.22400541969E+01  0.82656802185E+02  0.00000000000E+00 0.  1.
       11    1    3    3    0    0 -0.19834479951E+02 -0.18356943364E+02 -0.60513360985E+02  0.66274058441E+02  0.00000000000E+00 0. -1.
      -13    1    5    5    0    0  0.12064432830E+03  0.12861450697E+02 -0.22663967427E+03  0.25707199929E+03  0.00000000000E+00 0. -1.
       13    1    5    5    0    0  0.58223780848E+02  0.31377343864E+02 -0.32692218337E+03  0.33354558960E+03  0.00000000000E+00 0.  1.
        4    1    4    4  502    0 -0.12528093904E+02 -0.52234922308E+02 -0.25002774037E+03  0.25573289034E+03  0.00000000000E+00 0. -1.
       -3    1    4    4    0  502 -0.67755041540E+02  0.13432962652E+01 -0.19140730879E+03  0.20305001344E+03  0.00000000000E+00 0.  1.
<mgrwt>
<rscale>  0 0.13921766E+03</rscale>
<asrwt>0</asrwt>
<pdfrwt beam="1">  1        2 0.17354474E+00 0.14432012E+03</pdfrwt>
<pdfrwt beam="2">  1       -1 0.10813925E-01 0.14432012E+03</pdfrwt>
<totfact> 0.13558115E+03</totfact>
</mgrwt>
</event>
<event>
10   0  0.7688500E-08  0.2576578E+03  0.7546771E-02  0.1157417E+00
        2   -1    0    0  502    0  0.00000000000E+00  0.00000000000E+00  0.15210354610E+04  0.15210354610E+04  0.00000000000E+00 0. -1.
        1   -1    0    0  501    0  0.00000000000E+00  0.00000000000E+00 -0.27796272888E+03  0.27796272888E+03  0.00000000000E+00 0. -1.
       23    2    1    2    0    0 -0.64656388823E+02 -0.10378259127E+02  0.12790646770E+03  0.17020213135E+03  0.91217016821E+02 0.  0.
       23    2    1    2    0    0  0.93378940931E+02  0.21896377237E+03  0.42824501124E+03  0.49802970697E+03  0.89303074682E+02 0.  0.
      -11    1    4    4    0    0  0.45684745921E+02  0.21132108532E+02  0.96597495746E+02  0.10892537907E+03  0.00000000000E+00 0.  1.
       11    1    4    4    0    0  0.47694195010E+02  0.19783166383E+03  0.33164751550E+03  0.38910432790E+03  0.00000000000E+00 0. -1.
      -13    1    3    3    0    0 -0.80251338691E+02  0.89453743385E+01  0.68771427412E+02  0.10606510412E+03  0.00000000000E+00 0. -1.
       13    1    3    3    0    0  0.15594949868E+02 -0.19323633466E+02  0.59135040288E+02  0.64137027227E+02  0.00000000000E+00 0.  1.
        2    1    1    2  501    0  0.10792990147E+03 -0.25121423028E+03 -0.12904353691E+03  0.30234035051E+03  0.00000000000E+00 0. -1.
        1    1    1    2  502    0 -0.13665245358E+03  0.42628717041E+02  0.81596479009E+03  0.82842600107E+03  0.00000000000E+00 0. -1.
<mgrwt>
<rscale>  0 0.19116250E+03</rscale>
<asrwt>0</asrwt>
<pdfrwt beam="1">  1        2 0.23400546E+00 0.14182803E+03</pdfrwt>
<pdfrwt beam="2">  1        1 0.42763497E-01 0.25765782E+03</pdfrwt>
<totfact> 0.18458646E+02</totfact>
</mgrwt>
</event>
<event>
10   0  0.7688500E-08  0.4417817E+02  0.7546771E-02  0.1691333E+00
        2   -1    0    0  502    0  0.00000000000E+00  0.00000000000E+00  0.12520218259E+04  0.12520218259E+04  0.00000000000E+00 0. -1.
       -2   -1    0    0    0  501  0.00000000000E+00  0.00000000000E+00 -0.18624228460E+02  0.18624228460E+02  0.00000000000E+00 0.  1.
       23    2    1    2    0    0  0.69638123250E+01 -0.24389519543E+02  0.27374857327E+03  0.28974001151E+03  0.91474857498E+02 0.  0.
       23    2    1    2    0    0  0.14405950470E+01 -0.26781782692E+02  0.48036434316E+03  0.48957670675E+03  0.90642762637E+02 0.  0.
      -11    1    3    3    0    0 -0.16205411891E+02 -0.10559403218E+02  0.25753519720E+03  0.25826051609E+03  0.00000000000E+00 0. -1.
       11    1    3    3    0    0  0.23169224216E+02 -0.13830116325E+02  0.16213376067E+02  0.31479495419E+02  0.00000000000E+00 0.  1.
      -13    1    4    4    0    0  0.34628375610E+02 -0.37063006253E+02  0.37996597778E+03  0.38333658200E+03  0.00000000000E+00 0.  1.
       13    1    4    4    0    0 -0.33187780563E+02  0.10281223561E+02  0.10039836538E+03  0.10624012475E+03  0.00000000000E+00 0. -1.
        2    1    1    2  502    0 -0.91691008110E+01  0.77190285864E+01  0.40564548841E+03  0.40582252042E+03  0.00000000000E+00 0. -1.
       -2    1    1    2    0  501  0.76469343897E+00  0.43452273649E+02  0.73639192603E+02  0.85506815685E+02  0.00000000000E+00 0.  1.
<mgrwt>
<rscale>  0 0.23010956E+02</rscale>
<asrwt>0</asrwt>
<pdfrwt beam="1">  1        2 0.19261874E+00 0.11985650E+02</pdfrwt>
<pdfrwt beam="2">  1       -2 0.28652659E-02 0.44178170E+02</pdfrwt>
<totfact> 0.85344521E+03</totfact>
</mgrwt>
</event>
<event>
10   0  0.7688500E-08  0.1125329E+03  0.7546771E-02  0.1269463E+00
        2   -1    0    0  502    0  0.00000000000E+00  0.00000000000E+00  0.43411011345E+03  0.43411011345E+03  0.00000000000E+00 0. -1.
       -2   -1    0    0    0  501  0.00000000000E+00  0.00000000000E+00 -0.35915606931E+03  0.35915606931E+03  0.00000000000E+00 0.  1.
       23    2    1    2    0    0  0.34923193650E+01  0.59105675373E+02  0.11348770573E+03  0.15604460362E+03  0.89245626284E+02 0.  0.
       23    2    1    2    0    0 -0.64501308148E+01 -0.27473358766E+02 -0.12524163374E+03  0.16008408743E+03  0.95629799730E+02 0.  0.
      -11    1    3    3    0    0 -0.29641563410E+02  0.62037943884E+02  0.52250885166E+02  0.86356723903E+02  0.00000000000E+00 0. -1.
       11    1    3    3    0    0  0.33133882775E+02 -0.29322685110E+01  0.61236820566E+02  0.69687879716E+02  0.00000000000E+00 0.  1.
      -13    1    4    4    0    0 -0.45942277881E+01  0.24491993464E+01  0.15413678572E+02  0.16269203839E+02  0.00000000000E+00 0. -1.
       13    1    4    4    0    0 -0.18559030266E+01 -0.29922558112E+02 -0.14065531232E+03  0.14381488359E+03  0.00000000000E+00 0.  1.
        1    1    1    2  502    0  0.53127065141E+02  0.84452271617E+02  0.25083008289E+03  0.26994518280E+03  0.00000000000E+00 0. -1.
       -1    1    1    2    0  501 -0.50169253691E+02 -0.11608458822E+03 -0.16412211074E+03  0.20719230892E+03  0.00000000000E+00 0.  1.
<mgrwt>
<rscale>  0 0.10533401E+03</rscale>
<asrwt>0</asrwt>
<pdfrwt beam="1">  1        2 0.66786171E-01 0.98595679E+02</pdfrwt>
<pdfrwt beam="2">  1       -2 0.55254780E-01 0.11253286E+03</pdfrwt>
<totfact> 0.23415809E+02</totfact>
</mgrwt>
</event>
<event>
10   0  0.7688500E-08  0.1663637E+03  0.7546771E-02  0.1184933E+00
        1   -1    0    0  501    0  0.00000000000E+00  0.00000000000E+00  0.23291075939E+04  0.23291075939E+04  0.00000000000E+00 0. -1.
        2   -1    0    0  502    0  0.00000000000E+00  0.00000000000E+00 -0.30366514389E+04  0.30366514389E+04  0.00000000000E+00 0. -1.
       23    2    1    2    0    0  0.17147129039E+02 -0.35004075032E+02 -0.62382662659E+02  0.12168899883E+03  0.96939705650E+02 0.  0.
       23    2    1    2    0    0  0.62830503031E+02 -0.13850197018E+02  0.79827868089E+03  0.80614021462E+03  0.92052665405E+02 0.  0.
      -11    1    3    3    0    0 -0.30179470630E+02  0.16593056515E+02 -0.21888438662E+02  0.40807275320E+02  0.00000000000E+00 0.  1.
       11    1    3    3    0    0  0.47326599668E+02 -0.51597131546E+02 -0.40494223998E+02  0.80881723505E+02  0.00000000000E+00 0. -1.
      -13    1    4    4    0    0  0.84387326205E+02 -0.24922930375E+02  0.61277298665E+03  0.61905824156E+03  0.00000000000E+00 0.  1.
       13    1    4    4    0    0 -0.21556823174E+02  0.11072733356E+02  0.18550569424E+03  0.18708197306E+03  0.00000000000E+00 0. -1.
        2    1    1    2  501    0  0.16184704255E+03  0.11780264146E+03  0.14851418577E+04  0.14985720753E+04  0.00000000000E+00 0. -1.
        1    1    1    2  502    0 -0.24182467462E+03 -0.68948369410E+02 -0.29285817209E+04  0.29393577440E+04  0.00000000000E+00 0. -1.
<mgrwt>
<rscale>  0 0.16337981E+03</rscale>
<asrwt>0</asrwt>
<pdfrwt beam="1">  1        2 0.46717714E+00 0.16044948E+03</pdfrwt>
<pdfrwt beam="2">  1        1 0.35832425E+00 0.16636366E+03</pdfrwt>
<totfact> 0.64831836E-01</totfact>
</mgrwt>
</event>
<event>
10   0  0.7688500E-08  0.1472675E+03  0.7546771E-02  0.1221998E+00
       -2   -1    0    0    0  501  0.00000000000E+00  0.00000000000E+00  0.74572952465E+03  0.74572952465E+03  0.00000000000E+00 0.  1.
        2   -1    0    0  502    0  0.00000000000E+00  0.00000000000E+00 -0.43973937013E+03  0.43973937013E+03  0.00000000000E+00 0. -1.
       23    2    1    2    0    0  0.82150481416E+01  0.17781455334E+03  0.13795360163E+03  0.24382365172E+03  0.93451990573E+02 0.  0.
       23    2    1    2    0    0  0.28259949674E+02 -0.23984245959E+02  0.14947094014E+02  0.98951676056E+02  0.90521543100E+02 0.  0.
      -11    1    4    4    0    0 -0.24353354734E+02 -0.36278417830E+02  0.88079007421E+01  0.44573406898E+02  0.00000000000E+00 0. -1.
       11    1    4    4    0    0  0.52613304407E+02  0.12294171871E+02  0.61391932716E+01  0.54378269158E+02  0.00000000000E+00 0.  1.
      -13    1    3    3    0    0  0.15245919699E+02  0.46373579730E+02 -0.55082850718E+01  0.49125229453E+02  0.00000000000E+00 0.  1.
       13    1    3    3    0    0 -0.70308715571E+01  0.13144097361E+03  0.14346188671E+03  0.19469842227E+03  0.00000000000E+00 0. -1.
        1    1    1    2  502    0  0.95176987651E+02 -0.86943303629E+02 -0.32111747452E+03  0.34602634216E+03  0.00000000000E+00 0. -1.
       -1    1    1    2    0  501 -0.13165198547E+03 -0.66887003749E+02  0.47420693339E+03  0.49666722484E+03  0.00000000000E+00 0.  1.
<mgrwt>
<rscale>  0 0.13374818E+03</rscale>
<asrwt>0</asrwt>
<pdfrwt beam="1">  1        2 0.67652211E-01 0.12146998E+03</pdfrwt>
<pdfrwt beam="2">  1       -2 0.11472762E+00 0.14726747E+03</pdfrwt>
<totfact> 0.46402589E+01</totfact>
</mgrwt>
</event>
<event>
11   0  0.7688500E-08  0.2058676E+03  0.7546771E-02  0.1167517E+00
        2   -1    0    0  501    0  0.00000000000E+00  0.00000000000E+00  0.11279312598E+04  0.11279312598E+04  0.00000000000E+00 0. -1.
       -2   -1    0    0    0  501  0.00000000000E+00  0.00000000000E+00 -0.24291369632E+03  0.24291369632E+03  0.00000000000E+00 0.  1.
       23    2    1    2    0    0  0.14773133513E+03  0.11499845401E+03 -0.17158664002E+03  0.27063508249E+03  0.93553092072E+02 0.  0.
       23    2    1    2    0    0 -0.72753239864E+02 -0.87823812826E+02  0.83186923049E+03  0.84501717182E+03  0.95087054987E+02 0.  0.
       23    2    1    2    0    0 -0.74978095262E+02 -0.27174641188E+02  0.22473497301E+03  0.25519270182E+03  0.90869857909E+02 0.  0.
      -11    1    3    3    0    0  0.60680009949E+02  0.65903781131E+01 -0.18372920041E+02  0.63742143688E+02  0.00000000000E+00 0. -1.
       11    1    3    3    0    0  0.87051325177E+02  0.10840807590E+03 -0.15321371998E+03  0.20689293880E+03  0.00000000000E+00 0.  1.
      -13    1    5    5    0    0 -0.28447349065E+02  0.13927198677E+02  0.12478987727E+02  0.34043261690E+02  0.00000000000E+00 0.  1.
       13    1    5    5    0    0 -0.46530746197E+02 -0.41101839864E+02  0.21225598529E+03  0.22114944013E+03  0.00000000000E+00 0. -1.
        3    1    4    4  502    0 -0.48793469882E+02 -0.10641014213E+03  0.61550920038E+03  0.62654249401E+03  0.00000000000E+00 0. -1.
       -3    1    4    4    0  502 -0.23959769982E+02  0.18586329300E+02  0.21636003011E+03  0.21847467781E+03  0.00000000000E+00 0.  1.
<mgrwt>
<rscale>  0 0.18029575E+03</rscale>
<asrwt>0</asrwt>
<pdfrwt beam="1">  1        2 0.17352789E+00 0.20586760E+03</pdfrwt>
<pdfrwt beam="2">  1       -2 0.37371338E-01 0.20586760E+03</pdfrwt>
<totfact> 0.15302903E+02</totfact>
</mgrwt>
</event>
<event>
10   0  0.7688500E-08  0.1328214E+03  0.7546771E-02  0.1244849E+00
        1   -1    0    0  502    0  0.00000000000E+00  0.00000000000E+00  0.16248439671E+04  0.16248439671E+04  0.00000000000E+00 0. -1.
        4   -1    0    0  501    0  0.00000000000E+00  0.00000000000E+00 -0.97126868883E+02  0.97126868883E+02  0.00000000000E+00 0. -1.
       23    2    1    2    0    0 -0.10766649709E+01 -0.15934036974E+03  0.12014311423E+04  0.12154187508E+04  0.91735692835E+02 0.  0.
       23    2    1    2    0    0 -0.49972676004E+02  0.24661481534E+02  0.17798840017E+03  0.20778850561E+03  0.91600957693E+02 0.  0.
      -11    1    4    4    0    0 -0.25358685580E+02 -0.87284608127E+01  0.16057637829E+03  0.16280055967E+03  0.00000000000E+00 0.  1.
       11    1    4    4    0    0 -0.24613990424E+02  0.33389942347E+02  0.17412021882E+02  0.44987945947E+02  0.00000000000E+00 0. -1.
      -13    1    3    3    0    0 -0.81457770639E+01  0.10821858899E+02  0.85261307607E+02  0.86330509606E+02  0.00000000000E+00 0.  1.
       13    1    3    3    0    0  0.70691120929E+01 -0.17016222864E+03  0.11161698347E+04  0.11290882412E+04  0.00000000000E+00 0. -1.
        4    1    1    2  501    0 -0.54646027186E+02  0.12147300098E+03  0.13792512475E+03  0.19174258341E+03  0.00000000000E+00 0. -1.
        1    1    1    2  502    0  0.10569536816E+03  0.13205887232E+02  0.10372431001E+02  0.10702099623E+03  0.00000000000E+00 0. -1.
<mgrwt>
<rscale>  0 0.11894435E+03</rscale>
<asrwt>0</asrwt>
<pdfrwt beam="1">  1        4 0.14942595E-01 0.13282140E+03</pdfrwt>
<pdfrwt beam="2">  1        1 0.24997599E+00 0.10651716E+03</pdfrwt>
<totfact> 0.10955069E+02</totfact>
</mgrwt>
</event>
<event>
10   0  0.7688500E-08  0.1887699E+03  0.7546771E-02  0.1168353E+00
        2   -1    0    0  502    0  0.00000000000E+00  0.00000000000E+00  0.85885053202E+03  0.85885053202E+03  0.00000000000E+00 0. -1.
        1   -1    0    0  501    0  0.00000000000E+00  0.00000000000E+00 -0.52182737834E+03  0.52182737834E+03  0.00000000000E+00 0. -1.
       23    2    1    2    0    0 -0.68349264569E+02  0.16502598405E+01  0.13833666083E+03  0.18209803614E+03  0.96686698731E+02 0.  0.
       23    2    1    2    0    0  0.10991657487E+03 -0.13360539028E+03 -0.27862242717E+03  0.34011755571E+03  0.90096842547E+02 0.  0.
      -11    1    4    4    0    0 -0.70506597352E+01  0.34132230769E+00 -0.49909518861E+02  0.50406233508E+02  0.00000000000E+00 0.  1.
       11    1    4    4    0    0  0.11696723460E+03 -0.13394671259E+03 -0.22871290831E+03  0.28971132220E+03  0.00000000000E+00 0. -1.
      -13    1    3    3    0    0  0.11184642739E+02  0.82539647442E+00 -0.91877392061E+01  0.14498002078E+02  0.00000000000E+00 0. -1.
       13    1    3    3    0    0 -0.79533907308E+02  0.82486336607E+00  0.14752440004E+03  0.16760003406E+03  0.00000000000E+00 0.  1.
        2    1    1    2  501    0  0.16141474491E+03  0.10592898386E+03 -0.11982801893E+03  0.22723209196E+03  0.00000000000E+00 0. -1.
        1    1    1    2  502    0 -0.20298205521E+03  0.26026146577E+02  0.59713693895E+03  0.63123022654E+03  0.00000000000E+00 0. -1.
<mgrwt>
<rscale>  0 0.17943243E+03</rscale>
<asrwt>0</asrwt>
<pdfrwt beam="1">  1        2 0.13213085E+00 0.17055683E+03</pdfrwt>
<pdfrwt beam="2">  1        1 0.80281135E-01 0.18876990E+03</pdfrwt>
<totfact> 0.19428864E+02</totfact>
</mgrwt>
</event>
<event>
10   0  0.7688500E-08  0.3809487E+03  0.7546771E-02  0.1096650E+00
        1   -1    0    0  501    0  0.00000000000E+00  0.00000000000E+00  0.58709758535E+03  0.58709758535E+03  0.00000000000E+00 0. -1.
        2   -1    0    0  502    0  0.00000000000E+00  0.00000000000E+00 -0.15399808503E+04  0.15399808503E+04  0.00000000000E+00 0. -1.
       23    2    1    2    0    0 -0.17056464830E+03 -0.18629659302E+03 -0.23657614508E+02  0.26926278592E+03  0.90244364568E+02 0.  0.
       23    2    1    2    0    0  0.26077848686E+02 -0.12635950632E+03 -0.17608249048E+03  0.23652815644E+03  0.91070007725E+02 0.  0.
      -11    1    3    3    0    0 -0.10638512908E+03 -0.16274789571E+03  0.65005239393E+01  0.19454287461E+03  0.00000000000E+00 0. -1.
       11    1    3    3    0    0 -0.64179519218E+02 -0.23548697306E+02 -0.30158138447E+02  0.74719911312E+02  0.00000000000E+00 0.  1.
      -13    1    4    4    0    0  0.56817227081E+02 -0.80915839506E+02 -0.85933250034E+02  0.13099654132E+03  0.00000000000E+00 0.  1.
       13    1    4    4    0    0 -0.30739378395E+02 -0.45443666810E+02 -0.90149240442E+02  0.10553161512E+03  0.00000000000E+00 0. -1.
        2    1    1    2  501    0  0.16338546147E+03  0.47572546121E+03  0.27966189227E+03  0.57551741716E+03  0.00000000000E+00 0. -1.
        1    1    1    2  502    0 -0.18898661859E+02 -0.16306936188E+03 -0.10328050523E+04  0.10457700762E+04  0.00000000000E+00 0. -1.
<mgrwt>
<rscale>  0 0.27824754E+03</rscale>
<asrwt>0</asrwt>
<pdfrwt beam="1">  1        2 0.23692013E+00 0.20323391E+03</pdfrwt>
<pdfrwt beam="2">  1        1 0.90322705E-01 0.38094870E+03</pdfrwt>
<totfact> 0.65551190E+01</totfact>
</mgrwt>
</event>
<event>
10   0  0.7688500E-08  0.2414858E+03  0.7546771E-02  0.1323044E+00
        1   -1    0    0  501    0  0.00000000000E+00  0.00000000000E+00  0.10265327612E+04  0.10265327612E+04  0.00000000000E+00 0. -1.
        2   -1    0    0  502    0  0.00000000000E+00  0.00000000000E+00 -0.13511007801E+04  0.13511007801E+04  0.00000000000E+00 0. -1.
       23    2    1    2    0    0  0.14765038273E+03 -0.15974776098E+02 -0.27137304898E+03  0.32217568495E+03  0.89988950805E+02 0.  0.
       23    2    1    2    0    0 -0.30877608231E+02  0.20602714359E+03 -0.90267291311E+02  0.24482364177E+03  0.91595966613E+02 0.  0.
      -11    1    3    3    0    0  0.99241339352E+01 -0.32790261685E+02 -0.43300670814E+02  0.55214470827E+02  0.00000000000E+00 0.  1.
       11    1    3    3    0    0  0.13772624880E+03  0.16815485586E+02 -0.22807237817E+03  0.26696121412E+03  0.00000000000E+00 0. -1.
      -13    1    4    4    0    0  0.20411215759E+02  0.13129220296E+03 -0.75990714509E+02  0.15306485220E+03  0.00000000000E+00 0. -1.
       13    1    4    4    0    0 -0.51288823990E+02  0.74734940632E+02 -0.14276576802E+02  0.91758789567E+02  0.00000000000E+00 0.  1.
        2    1    1    2  501    0 -0.12028243265E+03 -0.21778100215E+03  0.90687519398E+03  0.94038239348E+03  0.00000000000E+00 0. -1.
        1    1    1    2  502    0  0.35096581548E+01  0.27728634657E+02 -0.86980287260E+03  0.87025182107E+03  0.00000000000E+00 0. -1.
<mgrwt>
<rscale>  0 0.82155304E+02</rscale>
<asrwt>0</asrwt>
<pdfrwt beam="1">  1        2 0.20786166E+00 0.27949864E+02</pdfrwt>
<pdfrwt beam="2">  1        1 0.15792812E+00 0.24148576E+03</pdfrwt>
<totfact> 0.41264885E+01</totfact>
</mgrwt>
</event>
<event>
11   0  0.7688500E-08  0.2446142E+03  0.7546771E-02  0.1147722E+00
        2   -1    0    0  501    0  0.00000000000E+00  0.00000000000E+00  0.16722095008E+04  0.16722095008E+04  0.00000000000E+00 0. -1.
       -2   -1    0    0    0  501  0.00000000000E+00  0.00000000000E+00 -0.11959143459E+03  0.11959143459E+03  0.00000000000E+00 0.  1.
       23    2    1    2    0    0  0.68930652362E+02 -0.85154998134E+01 -0.23529948260E+02  0.11706567938E+03  0.91251116439E+02 0.  0.
       23    2    1    2    0    0 -0.27726704392E+03 -0.24710923851E+02  0.51660752788E+03  0.59068529920E+03  0.67365728839E+02 0.  0.
       23    2    1    2    0    0  0.20833639156E+03  0.33226423664E+02  0.10595404866E+04  0.10840499568E+04  0.89611488537E+02 0.  0.
      -11    1    5    5    0    0  0.16842556910E+03 -0.58637731115E+01  0.68839982275E+03  0.70872834861E+03  0.00000000000E+00 0.  1.
       11    1    5    5    0    0  0.39910822466E+02  0.39090196776E+02  0.37114066381E+03  0.37532160818E+03  0.00000000000E+00 0. -1.
      -13    1    4    4    0    0 -0.35076511872E+02  0.23239239030E+01  0.28997130270E+02  0.45569681493E+02  0.00000000000E+00 0.  1.
       13    1    4    4    0    0 -0.24219053205E+03 -0.27034847754E+02  0.48761039761E+03  0.54511561771E+03  0.00000000000E+00 0. -1.
        1    1    3    3  502    0 -0.17428833453E+02 -0.14569791475E+01 -0.24874606152E+02  0.30407779514E+02  0.00000000000E+00 0. -1.
       -1    1    3    3    0  502  0.86359485815E+02 -0.70585206659E+01  0.13446578920E+01  0.86657899865E+02  0.00000000000E+00 0.  1.
<mgrwt>
<rscale>  0 0.20240904E+03</rscale>
<asrwt>0</asrwt>
<pdfrwt beam="1">  1        2 0.25726300E+00 0.24461419E+03</pdfrwt>
<pdfrwt beam="2">  1       -2 0.18398682E-01 0.24461419E+03</pdfrwt>
<totfact> 0.27121180E+02</totfact>
</mgrwt>
</event>
<event>
10   0  0.7688500E-08  0.1697210E+03  0.7546771E-02  0.1360401E+00
        2   -1    0    0  502    0  0.00000000000E+00  0.00000000000E+00  0.34789232489E+02  0.34789232489E+02  0.00000000000E+00 0. -1.
        1   -1    0    0  501    0  0.00000000000E+00  0.00000000000E+00 -0.24976504875E+04  0.24976504875E+04  0.00000000000E+00 0. -1.
       23    2    1    2    0    0  0.47365503311E+02 -0.86861221468E+01 -0.65842082553E+03  0.66652938416E+03  0.91785057815E+02 0.  0.
       23    2    1    2    0    0 -0.13691030478E+03 -0.10215495443E+03 -0.13704926920E+04  0.13841187840E+04  0.91403081073E+02 0.  0.
      -11    1    3    3    0    0 -0.12258140120E+02  0.29327117997E+02 -0.16099207740E+03  0.16409994161E+03  0.00000000000E+00 0.  1.
       11    1    3    3    0    0  0.59623643430E+02 -0.38013240144E+02 -0.49742874812E+03  0.50242944255E+03  0.00000000000E+00 0. -1.
      -13    1    4    4    0    0 -0.74624693859E+02 -0.98735827864E+02 -0.71186661284E+03  0.72254528102E+03  0.00000000000E+00 0. -1.
       13    1    4    4    0    0 -0.62285610923E+02 -0.34191265646E+01 -0.65862607916E+03  0.66157350302E+03  0.00000000000E+00 0.  1.
        2    1    1    2  501    0 -0.13133796628E+02 -0.25626791866E+02 -0.12999352592E+03  0.13314483038E+03  0.00000000000E+00 0. -1.
        1    1    1    2  502    0  0.10267859810E+03  0.13646786844E+03 -0.30395421155E+03  0.34864672140E+03  0.00000000000E+00 0. -1.
<mgrwt>
<rscale>  0 0.69909541E+02</rscale>
<asrwt>0</asrwt>
<pdfrwt beam="1">  1        2 0.53521896E-02 0.16972102E+03</pdfrwt>
<pdfrwt beam="2">  1        1 0.38425392E+00 0.28796338E+02</pdfrwt>
<totfact> 0.42056555E+02</totfact>
</mgrwt>
</event>
<event>
10   0  0.7688500E-08  0.1536799E+03  0.7546771E-02  0.1210476E+00
        1   -1    0    0  501    0  0.00000000000E+00  0.00000000000E+00  0.65787241296E+03  0.65787241296E+03  0.00000000000E+00 0. -1.
        2   -1    0    0  502    0  0.00000000000E+00  0.00000000000E+00 -0.19245710708E+03  0.19245710708E+03  0.00000000000E+00 0. -1.
       23    2    1    2    0    0 -0.12896413072E+02  0.88775297638E+02 -0.72420647226E+01  0.12873555558E+03  0.92049034911E+02 0.  0.
       23    2    1    2    0    0  0.90464984485E+01  0.14073869261E+02  0.15650043443E+03  0.18301358574E+03  0.93389901252E+02 0.  0.
      -11    1    3    3    0    0  0.25828258166E+02  0.85503902389E+02 -0.94004738837E+01  0.89813056695E+02  0.00000000000E+00 0.  1.
       11    1    3    3    0    0 -0.38724671237E+02  0.32713952495E+01  0.21584091612E+01  0.38922498885E+02  0.00000000000E+00 0. -1.
      -13    1    4    4    0    0 -0.29070493052E+02  0.19651239829E+02  0.13374592891E+03  0.13827233380E+03  0.00000000000E+00 0. -1.
       13    1    4    4    0    0  0.38116991501E+02 -0.55773705684E+01  0.22754505520E+02  0.44741251938E+02  0.00000000000E+00 0.  1.
        2    1    1    2  501    0  0.14365899588E+03 -0.14576966423E+03  0.33351580319E+03  0.39130485952E+03  0.00000000000E+00 0. -1.
        1    1    1    2  502    0 -0.13980908126E+03  0.42920497335E+02 -0.17358867022E+02  0.14727551921E+03  0.00000000000E+00 0. -1.
<mgrwt>
<rscale>  0 0.14214180E+03</rscale>
<asrwt>0</asrwt>
<pdfrwt beam="1">  1        2 0.29608786E-01 0.15367993E+03</pdfrwt>
<pdfrwt beam="2">  1        1 0.10121114E+00 0.13146994E+03</pdfrwt>
<totfact> 0.75952345E+02</totfact>
</mgrwt>
</event>
<event>
10   0  0.7688500E-08  0.1449446E+03  0.7546771E-02  0.1244654E+00
        1   -1    0    0  501    0  0.00000000000E+00  0.00000000000E+00  0.35718462882E+03  0.35718462882E+03  0.00000000000E+00 0. -1.
        2   -1    0    0  502    0  0.00000000000E+00  0.00000000000E+00 -0.13472109098E+04  0.13472109098E+04  0.00000000000E+00 0. -1.
       23    2    1    2    0    0  0.38307546209E+02 -0.63776067482E+02 -0.16385360261E+03  0.20242095579E+03  0.92689726374E+02 0.  0.
       23    2    1    2    0    0  0.39893815033E+02  0.19040457732E+02  0.50943451654E+02  0.11393456156E+03  0.91824798077E+02 0.  0.
      -11    1    3    3    0    0 -0.27399622123E+02 -0.87812314207E+00 -0.45988155718E+02  0.53538965802E+02  0.00000000000E+00 0.  1.
       11    1    3    3    0    0  0.65707168332E+02 -0.62897944340E+02 -0.11786544689E+03  0.14888198999E+03  0.00000000000E+00 0. -1.
      -13    1    4    4    0    0 -0.28524254008E+02  0.12738607648E+02  0.59372641419E+01  0.31798683889E+02  0.00000000000E+00 0.  1.
       13    1    4    4    0    0  0.68418069041E+02  0.63018500835E+01  0.45006187512E+02  0.82135877667E+02  0.00000000000E+00 0. -1.
        2    1    1    2  501    0  0.57733948043E+00 -0.10362557532E+03  0.23839940016E+03  0.25994781626E+03  0.00000000000E+00 0. -1.
        1    1    1    2  502    0 -0.78778700722E+02  0.14836118507E+03 -0.11155155302E+04  0.11280922050E+04  0.00000000000E+00 0. -1.
<mgrwt>
<rscale>  0 0.11906126E+03</rscale>
<asrwt>0</asrwt>
<pdfrwt beam="1">  1        2 0.20726322E+00 0.14494458E+03</pdfrwt>
<pdfrwt beam="2">  1        1 0.54951481E-01 0.97800016E+02</pdfrwt>
<totfact> 0.16718466E+02</totfact>
</mgrwt>
</event>
<event>
10   0  0.7688500E-08  0.1554640E+03  0.7546771E-02  0.1223913E+00
        3   -1    0    0  501    0  0.00000000000E+00  0.00000000000E+00  0.33409287625E+03  0.33409287625E+03  0.00000000000E+00 0. -1.
        2   -1    0    0  502    0  0.00000000000E+00  0.00000000000E+00 -0.32490423562E+03  0.32490423562E+03  0.00000000000E+00 0. -1.
       23    2    1    2    0    0  0.58526504094E+02 -0.97729751492E+02  0.20273394564E+02  0.14650726436E+03  0.89871641664E+02 0.  0.
       23    2    1    2    0    0  0.12305732334E+03 -0.63343458383E+02  0.44846070267E+02  0.17233166381E+03  0.92366302223E+02 0.  0.
      -11    1    3    3    0    0  0.73901247178E+02 -0.88395382950E+02  0.37932147040E+02  0.12130121945E+03  0.00000000000E+00 0. -1.
       11    1    3    3    0    0 -0.15374743085E+02 -0.93343685426E+01 -0.17658752476E+02  0.25206044910E+02  0.00000000000E+00 0.  1.
      -13    1    4    4    0    0  0.34320482448E+02  0.24002083912E+02  0.11478884279E+02  0.43425342047E+02  0.00000000000E+00 0.  1.
       13    1    4    4    0    0  0.88736840887E+02 -0.87345542295E+02  0.33367185988E+02  0.12890632176E+03  0.00000000000E+00 0. -1.
        4    1    1    2  501    0 -0.88835942713E+02  0.96897486303E+02  0.87335081607E+02  0.15782383866E+03  0.00000000000E+00 0. -1.
        1    1    1    2  502    0 -0.92747884717E+02  0.64175723572E+02 -0.14326590581E+03  0.18233434504E+03  0.00000000000E+00 0. -1.
<mgrwt>
<rscale>  0 0.13241664E+03</rscale>
<asrwt>0</asrwt>
<pdfrwt beam="1">  1        2 0.49985267E-01 0.11278605E+03</pdfrwt>
<pdfrwt beam="2">  1        3 0.51398904E-01 0.15546397E+03</pdfrwt>
<totfact> 0.23036797E+02</totfact>
</mgrwt>
</event>
<event>
10   0  0.7688500E-08  0.1768147E+03  0.7546771E-02  0.1240467E+00
        1   -1    0    0  501    0  0.00000000000E+00  0.00000000000E+00  0.13278822150E+04  0.13278822150E+04  0.00000000000E+00 0. -1.
        2   -1    0    0  502    0  0.00000000000E+00  0.00000000000E+00 -0.42628146820E+04  0.42628146820E+04  0.00000000000E+00 0. -1.
       23    2    1    2    0    0 -0.25084582252E+03  0.14503829309E+03 -0.10970692443E+03  0.32343830930E+03  0.92827784183E+02 0.  0.
       23    2    1    2    0    0  0.54874596208E+02  0.73798491993E+02  0.24376883550E+03  0.27578743470E+03  0.90432434711E+02 0.  0.
      -11    1    3    3    0    0 -0.21790591223E+03  0.11880185036E+03 -0.54667466483E+02  0.25413657377E+03  0.00000000000E+00 0.  1.
       11    1    3    3    0    0 -0.32939910292E+02  0.26236442723E+02 -0.55039457945E+02  0.69301735532E+02  0.00000000000E+00 0. -1.
      -13    1    4    4    0    0  0.64221841221E+02  0.87830799784E+02  0.18476616155E+03  0.21442301353E+03  0.00000000000E+00 0.  1.
       13    1    4    4    0    0 -0.93472450129E+01 -0.14032307791E+02  0.59002673953E+02  0.61364421165E+02  0.00000000000E+00 0. -1.
        2    1    1    2  501    0  0.18297851875E+03 -0.13621320039E+03  0.94726348629E+03  0.97434248945E+03  0.00000000000E+00 0. -1.
        1    1    1    2  502    0  0.12992707560E+02 -0.82623584686E+02 -0.40162578643E+04  0.40171286636E+04  0.00000000000E+00 0. -1.
<mgrwt>
<rscale>  0 0.12160833E+03</rscale>
<asrwt>0</asrwt>
<pdfrwt beam="1">  1        2 0.65581764E+00 0.83638910E+02</pdfrwt>
<pdfrwt beam="2">  1        1 0.20428957E+00 0.17681468E+03</pdfrwt>
<totfact> 0.47716165E-01</totfact>
</mgrwt>
</event>
<event>
10   0  0.7688500E-08  0.2013473E+03  0.7546771E-02  0.1175917E+00
        2   -1    0    0  502    0  0.00000000000E+00  0.00000000000E+00  0.18776936203E+04  0.18776936203E+04  0.00000000000E+00 0. -1.
        1   -1    0    0  501    0  0.00000000000E+00  0.00000000000E+00 -0.40088595330E+03  0.40088595330E+03  0.00000000000E+00 0. -1.
       23    2    1    2    0    0 -0.60624838055E+02  0.12074316185E+03 -0.25802306748E+02  0.16502676300E+03  0.91179994230E+02 0.  0.
       23    2    1    2    0    0  0.12615735495E+03 -0.12754025932E+03  0.58216919342E+03  0.61587038185E+03  0.90516084293E+02 0.  0.
      -11    1    3    3    0    0  0.19235842377E+02  0.49192768752E+02 -0.23409837860E+02  0.57775138581E+02  0.00000000000E+00 0. -1.
       11    1    3    3    0    0 -0.79860680433E+02  0.71550393101E+02 -0.23924688877E+01  0.10725162441E+03  0.00000000000E+00 0.  1.
      -13    1    4    4    0    0  0.36646302369E+02  0.21194034670E+01  0.58958371745E+02  0.69451659067E+02  0.00000000000E+00 0.  1.
       13    1    4    4    0    0  0.89511052581E+02 -0.12965966279E+03  0.52321082168E+03  0.54641872279E+03  0.00000000000E+00 0. -1.
        2    1    1    2  501    0 -0.66075178422E+02  0.15349568510E+03 -0.25950190635E+03  0.30865529957E+03  0.00000000000E+00 0. -1.
        1    1    1    2  502    0  0.54266152677E+00 -0.14669858764E+03  0.11799426867E+04  0.11890271292E+04  0.00000000000E+00 0. -1.
<mgrwt>
<rscale>  0 0.17186499E+03</rscale>
<asrwt>0</asrwt>
<pdfrwt beam="1">  1        2 0.28887594E+00 0.14669959E+03</pdfrwt>
<pdfrwt beam="2">  1        1 0.61674762E-01 0.20134735E+03</pdfrwt>
<totfact> 0.76026515E+01</totfact>
</mgrwt>
</event>
<event>
10   0  0.7688500E-08  0.1690510E+03  0.7546771E-02  0.1256261E+00
        1   -1    0    0  501    0  0.00000000000E+00  0.00000000000E+00  0.27564701091E+03  0.27564701091E+03  0.00000000000E+00 0. -1.
        2   -1    0    0  502    0  0.00000000000E+00  0.00000000000E+00 -0.22319429401E+04  0.22319429401E+04  0.00000000000E+00 0. -1.
       23    2    1    2    0    0  0.11598356165E+02 -0.12736515902E+03 -0.58665321544E+02  0.16779142954E+03  0.91410821455E+02 0.  0.
       23    2    1    2    0    0  0.37749667725E+02  0.29829484150E+02  0.11899304090E+03  0.15748651469E+03  0.91256906513E+02 0.  0.
      -11    1    3    3    0    0  0.56506338411E+01 -0.13549885042E+03 -0.32078043905E+02  0.13935877808E+03  0.00000000000E+00 0. -1.
       11    1    3    3    0    0  0.59477223242E+01  0.81336914047E+01 -0.26587277639E+02  0.28432651459E+02  0.00000000000E+00 0.  1.
      -13    1    4    4    0    0  0.42631146974E+02  0.19119987879E+02  0.98992015741E+01  0.47759635893E+02  0.00000000000E+00 0. -1.
       13    1    4    4    0    0 -0.48814792493E+01  0.10709496271E+02  0.10909383933E+03  0.10972687879E+03  0.00000000000E+00 0.  1.
        2    1    1    2  501    0 -0.20589639205E+02 -0.71786130246E+02  0.61720010449E+02  0.96884165002E+02  0.00000000000E+00 0. -1.
        1    1    1    2  502    0 -0.28758384685E+02  0.16932180511E+03 -0.20783436590E+04  0.20854278418E+04  0.00000000000E+00 0. -1.
<mgrwt>
<rscale>  0 0.11236022E+03</rscale>
<asrwt>0</asrwt>
<pdfrwt beam="1">  1        2 0.34337584E+00 0.16905102E+03</pdfrwt>
<pdfrwt beam="2">  1        1 0.42407232E-01 0.74680531E+02</pdfrwt>
<totfact> 0.78588196E+01</totfact>
</mgrwt>
</event>
<event>
10   0  0.7688500E-08  0.1678527E+03  0.7546771E-02  0.1241606E+00
        2   -1    0    0  502    0  0.00000000000E+00  0.00000000000E+00  0.23491962528E+04  0.23491962528E+04  0.00000000000E+00 0. -1.
        3   -1    0    0  501    0  0.00000000000E+00  0.00000000000E+00 -0.37766728740E+03  0.37766728740E+03  0.00000000000E+00 0. -1.
       23    2    1    2    0    0 -0.28859814730E+02  0.15059668641E+03 -0.78807142027E+02  0.19327968085E+03  0.87374015178E+02 0.  0.
       23    2    1    2    0    0  0.11444103338E+03 -0.41745770742E+02  0.49470216654E+03  0.51784837846E+03  0.92721356779E+02 0.  0.
      -11    1    3    3    0    0 -0.51113932809E+02  0.14042571677E+03 -0.78515621250E+02  0.16880971192E+03  0.00000000000E+00 0. -1.
       11    1    3    3    0    0  0.22254118078E+02  0.10170969642E+02 -0.29152077722E+00  0.24469968926E+02  0.00000000000E+00 0.  1.
      -13    1    4    4    0    0  0.11924388376E+03 -0.33796391601E+02  0.49308230023E+03  0.50842054905E+03  0.00000000000E+00 0. -1.
       13    1    4    4    0    0 -0.48028503793E+01 -0.79493791407E+01  0.16198663060E+01  0.94278294076E+01  0.00000000000E+00 0.  1.
        4    1    1    2  501    0 -0.15892447028E+03 -0.61883354422E+02 -0.19721152083E+03  0.26072767547E+03  0.00000000000E+00 0. -1.
        1    1    1    2  502    0  0.73343251629E+02 -0.46967561251E+02  0.17528454617E+04  0.17550078054E+04  0.00000000000E+00 0. -1.
<mgrwt>
<rscale>  0 0.12090820E+03</rscale>
<asrwt>0</asrwt>
<pdfrwt beam="1">  1        2 0.36141481E+00 0.87092964E+02</pdfrwt>
<pdfrwt beam="2">  1        3 0.58102660E-01 0.16785273E+03</pdfrwt>
<totfact> 0.10086336E+01</totfact>
</mgrwt>
</event>
<event>
10   0  0.7688500E-08  0.7137924E+02  0.7546771E-02  0.1417090E+00
        2   -1    0    0  502    0  0.00000000000E+00  0.00000000000E+00  0.20502165899E+04  0.20502165899E+04  0.00000000000E+00 0. -1.
        1   -1    0    0  501    0  0.00000000000E+00  0.00000000000E+00 -0.11810696867E+04  0.11810696867E+04  0.00000000000E+00 0. -1.
       23    2    1    2    0    0  0.13564484557E+02 -0.52911732411E+02  0.61909066289E+03  0.62803232857E+03  0.90375384813E+02 0.  0.
       23    2    1    2    0    0 -0.15198234998E+02  0.21264036654E+02 -0.19788799170E+03  0.21859935162E+03  0.89122801041E+02 0.  0.
      -11    1    3    3    0    0 -0.14254161320E+01  0.25352631841E+02  0.12447168763E+03  0.12703538394E+03  0.00000000000E+00 0.  1.
       11    1    3    3    0    0  0.14989900689E+02 -0.78264364251E+02  0.49461897526E+03  0.50099694463E+03  0.00000000000E+00 0. -1.
      -13    1    4    4    0    0 -0.11195846903E+01 -0.32329748647E+02 -0.41075699357E+02  0.52284598068E+02  0.00000000000E+00 0. -1.
       13    1    4    4    0    0 -0.14078650308E+02  0.53593785301E+02 -0.15681229234E+03  0.16631475355E+03  0.00000000000E+00 0.  1.
        2    1    1    2  501    0  0.28946404222E+02  0.65341566135E+02 -0.96670376722E+03  0.96934183245E+03  0.00000000000E+00 0. -1.
        1    1    1    2  502    0 -0.27312653781E+02 -0.33693870378E+02  0.14146479992E+04  0.14153127639E+04  0.00000000000E+00 0. -1.
<mgrwt>
<rscale>  0 0.55641401E+02</rscale>
<asrwt>0</asrwt>
<pdfrwt beam="1">  1        2 0.31541794E+00 0.43373471E+02</pdfrwt>
<pdfrwt beam="2">  1        1 0.18170303E+00 0.71379243E+02</pdfrwt>
<totfact> 0.15412487E+01</totfact>
</mgrwt>
</event>
<event>
10   0  0.7688500E-08  0.1103374E+03  0.7546771E-02  0.1483265E+00
       -3   -1    0    0    0  501  0.00000000000E+00  0.00000000000E+00  0.12444055777E+03  0.12444055777E+03  0.00000000000E+00 0.  1.
        1   -1    0    0  502    0  0.00000000000E+00  0.00000000000E+00 -0.99982463128E+03  0.99982463128E+03  0.00000000000E+00 0. -1.
       23    2    1    2    0    0 -0.12363708358E+03  0.17179202966E+02  0.32264510708E+02  0.15760508288E+03  0.90648276582E+02 0.  0.
       23    2    1    2    0    0 -0.13716316319E+02  0.23010736778E+02 -0.37803441230E+03  0.38937997475E+03  0.89381857868E+02 0.  0.
      -11    1    4    4    0    0 -0.42815618064E+02 -0.13779904307E+02 -0.15129403970E+03  0.15783836467E+03  0.00000000000E+00 0.  1.
       11    1    4    4    0    0  0.29099301746E+02  0.36790641085E+02 -0.22674037260E+03  0.23154161009E+03  0.00000000000E+00 0. -1.
      -13    1    3    3    0    0  0.46664597857E+01 -0.18377383027E+02  0.13211340562E+02  0.23109382798E+02  0.00000000000E+00 0.  1.
       13    1    3    3    0    0 -0.12830354337E+03  0.35556585993E+02  0.19053170145E+02  0.13449570008E+03  0.00000000000E+00 0. -1.
        2    1    1    2  502    0  0.14352293774E+03 -0.24102440588E+02 -0.53855253432E+03  0.55786969224E+03  0.00000000000E+00 0. -1.
       -4    1    1    2    0  501 -0.61695378360E+01 -0.16087499157E+02  0.89383624046E+01  0.19410439168E+02  0.00000000000E+00 0.  1.
<mgrwt>
<rscale>  0 0.43601683E+02</rscale>
<asrwt>0</asrwt>
<pdfrwt beam="1">  1        1 0.15381917E+00 0.11033740E+03</pdfrwt>
<pdfrwt beam="2">  1       -3 0.19144701E-01 0.17229940E+02</pdfrwt>
<totfact> 0.16623055E+02</totfact>
</mgrwt>
</event>
<event>
11   0  0.7688500E-08  0.2185991E+03  0.7546771E-02  0.1152993E+00
       -1   -1    0    0    0  501  0.00000000000E+00  0.00000000000E+00  0.32508672725E+03  0.32508672725E+03  0.00000000000E+00 0.  1.
        1   -1    0    0  501    0  0.00000000000E+00  0.00000000000E+00 -0.63829035783E+03  0.63829035783E+03  0.00000000000E+00 0. -1.
       23    2    1    2    0    0  0.17804626150E+03  0.50363260382E+02  0.19350971595E+03  0.28578264385E+03  0.99943884914E+02 0.  0.
       23    2    1    2    0    0  0.10728383306E+03 -0.14081662140E+02 -0.11315743817E+03  0.18144077913E+03  0.91695345984E+02 0.  0.
       23    2    1    2    0    0 -0.28533009456E+03 -0.36281598242E+02 -0.39355590835E+03  0.49615366210E+03  0.92480193461E+02 0.  0.
      -11    1    3    3    0    0  0.88657683226E+02  0.71276884241E+02  0.13662975880E+03  0.17778714805E+03  0.00000000000E+00 0.  1.
       11    1    3    3    0    0  0.89388578274E+02 -0.20913623859E+02  0.56879957146E+02  0.10799549580E+03  0.00000000000E+00 0. -1.
      -13    1    4    4    0    0  0.72534581233E+02 -0.45123065574E+02 -0.39107185950E+02  0.93950670643E+02  0.00000000000E+00 0.  1.
       13    1    4    4    0    0  0.34749251823E+02  0.31041403433E+02 -0.74050252224E+02  0.87490108491E+02  0.00000000000E+00 0. -1.
        4    1    5    5  502    0 -0.46790235308E+02  0.13665648288E+02 -0.26293708589E+02  0.55384430797E+02  0.00000000000E+00 0.  1.
       -4    1    5    5    0  502 -0.23853985925E+03 -0.49947246530E+02 -0.36726219976E+03  0.44076923130E+03  0.00000000000E+00 0. -1.
<mgrwt>
<rscale>  0 0.19619117E+03</rscale>
<asrwt>0</asrwt>
<pdfrwt beam="1">  1        1 0.98198517E-01 0.21859914E+03</pdfrwt>
<pdfrwt beam="2">  1       -1 0.50013343E-01 0.21859914E+03</pdfrwt>
<totfact> 0.13523564E+02</totfact>
</mgrwt>
</event>
<event>
11   0  0.7688500E-08  0.5207297E+03  0.7546771E-02  0.1008505E+00
       -1   -1    0    0    0  501  0.00000000000E+00  0.00000000000E+00  0.99585554272E+02  0.99585554272E+02  0.00000000000E+00 0.  1.
        1   -1    0    0  501    0  0.00000000000E+00  0.00000000000E+00 -0.68071988790E+03  0.68071988790E+03  0.00000000000E+00 0. -1.
       23    2    1    2    0    0 -0.31476121458E+02  0.78312418567E+02 -0.19875690080E+03  0.23577403989E+03  0.94665258378E+02 0.  0.
       23    2    1    2    0    0 -0.13109660374E+03  0.38703180843E+02 -0.19840435521E+03  0.25784393669E+03  0.91841993677E+02 0.  0.
       23    2    1    2    0    0  0.16257272520E+03 -0.11701559941E+03 -0.18397307762E+03  0.28668746560E+03  0.90670106197E+02 0.  0.
      -11    1    3    3    0    0 -0.43842563562E+02  0.65433107407E-01 -0.99865917770E+02  0.10906592590E+03  0.00000000000E+00 0.  1.
       11    1    3    3    0    0  0.12366442104E+02  0.78246985460E+02 -0.98890983033E+02  0.12670811398E+03  0.00000000000E+00 0. -1.
      -13    1    4    4    0    0 -0.91279581016E+02  0.52549105287E+02 -0.18625457656E+03  0.21397228248E+03  0.00000000000E+00 0. -1.
       13    1    4    4    0    0 -0.39817022725E+02 -0.13845924444E+02 -0.12149778644E+02  0.43871654214E+02  0.00000000000E+00 0.  1.
        3    1    5    5  502    0  0.59038057389E+02 -0.11046872711E+02 -0.99285395364E+02  0.11603928365E+03  0.00000000000E+00 0. -1.
       -3    1    5    5    0  502  0.10353466781E+03 -0.10596872670E+03 -0.84687682255E+02  0.17064818195E+03  0.00000000000E+00 0.  1.
<mgrwt>
<rscale>  0 0.52072975E+03</rscale>
<asrwt>0</asrwt>
<pdfrwt beam="1">  1        1 0.10472614E+00 0.52072975E+03</pdfrwt>
<pdfrwt beam="2">  1       -1 0.15320855E-01 0.52072975E+03</pdfrwt>
<totfact> 0.91010209E+02</totfact>
</mgrwt>
</event>
<event>
10   0  0.7688500E-08  0.1122073E+03  0.7546771E-02  0.1272379E+00
        2   -1    0    0  502    0  0.00000000000E+00  0.00000000000E+00  0.96422933351E+03  0.96422933351E+03  0.00000000000E+00 0. -1.
       -2   -1    0    0    0  501  0.00000000000E+00  0.00000000000E+00 -0.10099653155E+03  0.10099653155E+03  0.00000000000E+00 0.  1.
       23    2    1    2    0    0 -0.25000576212E+02  0.11786089541E+03  0.17934085026E+03  0.23542658417E+03  0.93521743367E+02 0.  0.
       23    2    1    2    0    0 -0.37716073212E+02 -0.62293421272E+02  0.35834863288E+03  0.37666215902E+03  0.90319803149E+02 0.  0.
      -11    1    4    4    0    0 -0.50501173603E+02 -0.74562192390E+02  0.22842698962E+03  0.24553773367E+03  0.00000000000E+00 0.  1.
       11    1    4    4    0    0  0.12785100390E+02  0.12268771119E+02  0.12992164326E+03  0.13112442535E+03  0.00000000000E+00 0. -1.
      -13    1    3    3    0    0  0.28927641524E+02  0.35737616857E+02  0.24638368890E+02  0.52163540182E+02  0.00000000000E+00 0.  1.
       13    1    3    3    0    0 -0.53928217736E+02  0.82123278552E+02  0.15470248137E+03  0.18326304398E+03  0.00000000000E+00 0. -1.
        1    1    1    2  502    0  0.78975607714E+02  0.54818819638E+02  0.32772894328E+03  0.34153844566E+03  0.00000000000E+00 0. -1.
       -1    1    1    2    0  501 -0.16258958290E+02 -0.11038629378E+03 -0.21856244553E+01  0.11159867621E+03  0.00000000000E+00 0.  1.
<mgrwt>
<rscale>  0 0.10386161E+03</rscale>
<asrwt>0</asrwt>
<pdfrwt beam="1">  1        2 0.14834297E+00 0.96136619E+02</pdfrwt>
<pdfrwt beam="2">  1       -2 0.15537928E-01 0.11220734E+03</pdfrwt>
<totfact> 0.90603194E+02</totfact>
</mgrwt>
</event>
<event>
11   0  0.7688500E-08  0.1186846E+03  0.7546771E-02  0.1249275E+00
        2   -1    0    0  501    0  0.00000000000E+00  0.00000000000E+00  0.73794438940E+03  0.73794438940E+03  0.00000000000E+00 0. -1.
       -1   -1    0    0    0  501  0.00000000000E+00  0.00000000000E+00 -0.90957867602E+02  0.90957867602E+02  0.00000000000E+00 0.  1.
       23    2    1    2    0    0 -0.57106859552E+02  0.56787769128E+02 -0.12580235869E+02  0.12178791182E+03  0.90487507435E+02 0.  0.
       24    2    1    2    0    0  0.66948288737E+02  0.27892994010E+02  0.45033594533E+03  0.46339174934E+03  0.81666132666E+02 0.  0.
       23    2    1    2    0    0 -0.98414291859E+01 -0.84680763138E+02  0.20923081234E+03  0.24372259584E+03  0.91408344882E+02 0.  0.
      -11    1    5    5    0    0  0.91761669454E+00 -0.10337381586E+03  0.17557775117E+03  0.20375115835E+03  0.00000000000E+00 0. -1.
       11    1    5    5    0    0 -0.10759045880E+02  0.18693052717E+02  0.33653061170E+02  0.39971437481E+02  0.00000000000E+00 0.  1.
      -13    1    3    3    0    0 -0.71972550477E+02  0.15097993546E+02  0.60039372755E+01  0.73783769855E+02  0.00000000000E+00 0.  1.
       13    1    3    3    0    0  0.14865690925E+02  0.41689775582E+02 -0.18584173144E+02  0.48004141970E+02  0.00000000000E+00 0. -1.
        4    1    4    4  502    0  0.68593544165E+02 -0.79659018168E+01  0.35198185396E+03  0.35869172755E+03  0.00000000000E+00 0. -1.
       -3    1    4    4    0  502 -0.16452554279E+01  0.35858895827E+02  0.98354091365E+02  0.10470002179E+03  0.00000000000E+00 0.  1.
<mgrwt>
<rscale>  0 0.11633118E+03</rscale>
<asrwt>0</asrwt>
<pdfrwt beam="1">  1        2 0.11352991E+00 0.11868462E+03</pdfrwt>
<pdfrwt beam="2">  1       -1 0.13993518E-01 0.11868462E+03</pdfrwt>
<totfact> 0.15929587E+03</totfact>
</mgrwt>
</event>
<event>
10   0  0.7688500E-08  0.9959392E+02  0.7546771E-02  0.1336310E+00
        3   -1    0    0  502    0  0.00000000000E+00  0.00000000000E+00  0.55605682543E+03  0.55605682543E+03  0.00000000000E+00 0. -1.
        1   -1    0    0  501    0  0.00000000000E+00  0.00000000000E+00 -0.98720314527E+02  0.98720314527E+02  0.00000000000E+00 0. -1.
       23    2    1    2    0    0 -0.68375403584E+02 -0.44785023798E+01  0.15650008328E+03  0.19386828071E+03  0.91637227152E+02 0.  0.
       23    2    1    2    0    0 -0.79369683543E+02 -0.12465955560E+02  0.86301955930E+02  0.14939364158E+03  0.91735957147E+02 0.  0.
      -11    1    3    3    0    0 -0.48442803196E+02  0.75578594353E+01  0.16257246512E+03  0.16980469027E+03  0.00000000000E+00 0. -1.
       11    1    3    3    0    0 -0.19932600388E+02 -0.12036361815E+02 -0.60723818385E+01  0.24063590447E+02  0.00000000000E+00 0.  1.
      -13    1    4    4    0    0 -0.39989637209E+02 -0.46144263140E+02  0.17997041099E+02  0.63658130613E+02  0.00000000000E+00 0.  1.
       13    1    4    4    0    0 -0.39380046334E+02  0.33678307580E+02  0.68304914831E+02  0.85735510967E+02  0.00000000000E+00 0. -1.
        1    1    1    2  501    0  0.59798479312E+02 -0.77774811861E+01 -0.16964235719E+02  0.62642897723E+02  0.00000000000E+00 0. -1.
        3    1    1    2  502    0  0.87946607815E+02  0.24721939126E+02  0.23149870741E+03  0.24887231994E+03  0.00000000000E+00 0. -1.
<mgrwt>
<rscale>  0 0.77496620E+02</rscale>
<asrwt>0</asrwt>
<pdfrwt beam="1">  1        1 0.15187741E-01 0.60302134E+02</pdfrwt>
<pdfrwt beam="2">  1        3 0.85547204E-01 0.99593924E+02</pdfrwt>
<totfact> 0.23448240E+02</totfact>
</mgrwt>
</event>
<event>
11   0  0.7688500E-08  0.1007794E+03  0.7546771E-02  0.1286529E+00
       -1   -1    0    0    0  501  0.00000000000E+00  0.00000000000E+00  0.91802851309E+02  0.91802851309E+02  0.00000000000E+00 0.  1.
        2   -1    0    0  501    0  0.00000000000E+00  0.00000000000E+00 -0.45787197591E+03  0.45787197591E+03  0.00000000000E+00 0. -1.
       23    2    1    2    0    0  0.37320386409E+02 -0.36335783830E+02  0.18905434851E+02  0.10623346823E+03  0.90636824064E+02 0.  0.
       24    2    1    2    0    0 -0.35109357137E+02  0.88455247425E+01 -0.30979949611E+03  0.32161337122E+03  0.78412514870E+02 0.  0.
       23    2    1    2    0    0 -0.22110292729E+01  0.27490259087E+02 -0.75175063341E+02  0.12182798778E+03  0.91815932507E+02 0.  0.
      -11    1    3    3    0    0 -0.22100608777E+02 -0.38159064255E+02  0.15297609090E+02  0.46675131891E+02  0.00000000000E+00 0. -1.
       11    1    3    3    0    0  0.59420995186E+02  0.18232804252E+01  0.36078257609E+01  0.59558336336E+02  0.00000000000E+00 0.  1.
      -13    1    5    5    0    0 -0.40500520803E+02 -0.10231249674E+02 -0.27776828088E+02  0.50164956233E+02  0.00000000000E+00 0. -1.
       13    1    5    5    0    0  0.38289491530E+02  0.37721508762E+02 -0.47398235253E+02  0.71663031543E+02  0.00000000000E+00 0.  1.
        4    1    4    4  502    0  0.12090595064E+01 -0.23475712069E+02 -0.20193236562E+03  0.20329596939E+03  0.00000000000E+00 0. -1.
       -3    1    4    4    0  502 -0.36318416643E+02  0.32321236811E+02 -0.10786713049E+03  0.11831740183E+03  0.00000000000E+00 0.  1.
<mgrwt>
<rscale>  0 0.97093898E+02</rscale>
<asrwt>0</asrwt>
<pdfrwt beam="1">  1        2 0.70441842E-01 0.10077938E+03</pdfrwt>
<pdfrwt beam="2">  1       -1 0.14123516E-01 0.10077938E+03</pdfrwt>
<totfact> 0.26744233E+03</totfact>
</mgrwt>
</event>
<event>
10   0  0.7688500E-08  0.9910095E+02  0.7546771E-02  0.1418212E+00
       -4   -1    0    0    0  501  0.00000000000E+00  0.00000000000E+00  0.91455163756E+02  0.91455163756E+02  0.00000000000E+00 0.  1.
        2   -1    0    0  502    0  0.00000000000E+00  0.00000000000E+00 -0.23952538547E+04  0.23952538547E+04  0.00000000000E+00 0. -1.
       23    2    1    2    0    0 -0.74575613605E+00 -0.23697054420E+02 -0.66593771304E+03  0.67261273582E+03  0.91502722376E+02 0.  0.
       23    2    1    2    0    0 -0.39840678835E+02 -0.81848265841E+02  0.18088392630E+02  0.13450721777E+03  0.97358016476E+02 0.  0.
      -11    1    3    3    0    0  0.66776801990E+00  0.99194411362E+00 -0.62345834482E+03  0.62345949154E+03  0.00000000000E+00 0. -1.
       11    1    3    3    0    0 -0.14135241559E+01 -0.24688998533E+02 -0.42479368225E+02  0.49153244287E+02  0.00000000000E+00 0.  1.
      -13    1    4    4    0    0 -0.23769199152E+02 -0.10041830940E+03 -0.13256005694E+01  0.10320159353E+03  0.00000000000E+00 0. -1.
       13    1    4    4    0    0 -0.16071479682E+02  0.18570043555E+02  0.19413993200E+02  0.31305624236E+02  0.00000000000E+00 0.  1.
        1    1    1    2  502    0  0.17238255789E+02  0.12589411041E+03 -0.16396958579E+04  0.16446121095E+04  0.00000000000E+00 0. -1.
       -3    1    1    2    0  501  0.23348179182E+02 -0.20348790147E+02 -0.16253512688E+02  0.34976955360E+02  0.00000000000E+00 0.  1.
<mgrwt>
<rscale>  0 0.55400976E+02</rscale>
<asrwt>0</asrwt>
<pdfrwt beam="1">  1        2 0.36850059E+00 0.99100948E+02</pdfrwt>
<pdfrwt beam="2">  1       -4 0.14070025E-01 0.30971127E+02</pdfrwt>
<totfact> 0.87802676E+01</totfact>
</mgrwt>
</event>
<event>
10   0  0.7688500E-08  0.1127020E+03  0.7546771E-02  0.1512001E+00
        2   -1    0    0  502    0  0.00000000000E+00  0.00000000000E+00  0.61502229729E+03  0.61502229729E+03  0.00000000000E+00 0. -1.
        1   -1    0    0  501    0  0.00000000000E+00  0.00000000000E+00 -0.16134950151E+04  0.16134950151E+04  0.00000000000E+00 0. -1.
       23    2    1    2    0    0 -0.75764811453E+02 -0.75012307025E+02  0.83200377006E+02  0.16153397051E+03  0.88338938391E+02 0.  0.
       23    2    1    2    0    0  0.40450985708E+02  0.17545214356E+03 -0.29371982529E+03  0.35630321526E+03  0.90889540172E+02 0.  0.
      -11    1    4    4    0    0  0.56158580238E+02  0.13238627647E+03 -0.16091341089E+03  0.21580787320E+03  0.00000000000E+00 0.  1.
       11    1    4    4    0    0 -0.15707594530E+02  0.43065867085E+02 -0.13280641440E+03  0.14049534205E+03  0.00000000000E+00 0. -1.
      -13    1    3    3    0    0  0.44549949807E+01 -0.48411538528E+02  0.97987791633E+01  0.49593750776E+02  0.00000000000E+00 0.  1.
       13    1    3    3    0    0 -0.80219806434E+02 -0.26600768497E+02  0.73401597843E+02  0.11194021974E+03  0.00000000000E+00 0. -1.
        2    1    1    2  501    0  0.25264257968E+02 -0.10995106805E+03 -0.12466652678E+04  0.12517594857E+04  0.00000000000E+00 0. -1.
        1    1    1    2  502    0  0.10049567777E+02  0.95112315161E+01  0.45871199825E+03  0.45892064094E+03  0.00000000000E+00 0. -1.
<mgrwt>
<rscale>  0 0.39489702E+02</rscale>
<asrwt>0</asrwt>
<pdfrwt beam="1">  1        2 0.94618815E-01 0.13836811E+02</pdfrwt>
<pdfrwt beam="2">  1        1 0.24823000E+00 0.11270202E+03</pdfrwt>
<totfact> 0.47165900E+01</totfact>
</mgrwt>
</event>
<event>
11   0  0.7688500E-08  0.3763049E+03  0.7546771E-02  0.1104828E+00
       -2   -1    0    0    0  501  0.00000000000E+00  0.00000000000E+00  0.61577301050E+03  0.61577301050E+03  0.00000000000E+00 0.  1.
        2   -1    0    0  501    0  0.00000000000E+00  0.00000000000E+00 -0.83721149483E+03  0.83721149483E+03  0.00000000000E+00 0. -1.
       23    2    1    2    0    0 -0.19248090894E+02  0.16003587315E+01 -0.13548211287E+03  0.16320497034E+03  0.88923614895E+02 0.  0.
       23    2    1    2    0    0 -0.35367649752E+03 -0.80994932875E+02  0.47511477379E+03  0.60501373020E+03  0.93060847866E+02 0.  0.
       23    2    1    2    0    0  0.37292458841E+03  0.79394574143E+02 -0.56107114525E+03  0.68476580479E+03  0.93419111185E+02 0.  0.
      -11    1    4    4    0    0 -0.34713583888E+03 -0.62697949019E+02  0.46317602543E+03  0.58220817066E+03  0.00000000000E+00 0.  1.
       11    1    4    4    0    0 -0.65406586425E+01 -0.18296983856E+02  0.11938748362E+02  0.22805559545E+02  0.00000000000E+00 0. -1.
      -13    1    3    3    0    0 -0.54075213466E+02  0.10390375892E+02 -0.83358736084E+02  0.99903791239E+02  0.00000000000E+00 0.  1.
       13    1    3    3    0    0  0.34827122572E+02 -0.87900171602E+01 -0.52123376785E+02  0.63301179103E+02  0.00000000000E+00 0. -1.
        2    1    5    5  502    0  0.33167515939E+03  0.63249561860E+02 -0.43196819265E+03  0.54827496559E+03  0.00000000000E+00 0. -1.
       -2    1    5    5    0  502  0.41249429025E+02  0.16145012284E+02 -0.12910295260E+03  0.13649083920E+03  0.00000000000E+00 0.  1.
<mgrwt>
<rscale>  0 0.26389096E+03</rscale>
<asrwt>0</asrwt>
<pdfrwt beam="1">  1        2 0.12880177E+00 0.37630490E+03</pdfrwt>
<pdfrwt beam="2">  1       -2 0.94734309E-01 0.37630490E+03</pdfrwt>
<totfact> 0.32303531E+01</totfact>
</mgrwt>
</event>
<event>
10   0  0.7688500E-08  0.1184596E+03  0.7546771E-02  0.1319646E+00
       -1   -1    0    0    0  501  0.00000000000E+00  0.00000000000E+00  0.12094275168E+03  0.12094275168E+03  0.00000000000E+00 0.  1.
        1   -1    0    0  502    0  0.00000000000E+00  0.00000000000E+00 -0.32383583033E+04  0.32383583033E+04  0.00000000000E+00 0. -1.
       23    2    1    2    0    0 -0.38464272908E+02  0.38208176991E+02 -0.78803974885E+03  0.79509053044E+03  0.90680431990E+02 0.  0.
       23    2    1    2    0    0  0.66712460958E+00  0.20603550420E+02 -0.46763495173E+03  0.47666959430E+03  0.90036118865E+02 0.  0.
      -11    1    4    4    0    0  0.42660427940E+02  0.17563153547E+02 -0.17317577592E+03  0.17921558482E+03  0.00000000000E+00 0.  1.
       11    1    4    4    0    0 -0.41993303330E+02  0.30403968732E+01 -0.29445917581E+03  0.29745400948E+03  0.00000000000E+00 0. -1.
      -13    1    3    3    0    0  0.20773788882E+02 -0.14804005696E+02 -0.15613100613E+03  0.15820113768E+03  0.00000000000E+00 0.  1.
       13    1    3    3    0    0 -0.59238061790E+02  0.53012182687E+02 -0.63190874272E+03  0.63688939276E+03  0.00000000000E+00 0. -1.
        2    1    1    2  502    0 -0.56900822712E+02  0.14541765275E+02 -0.19422991919E+04  0.19431868972E+04  0.00000000000E+00 0. -1.
       -2    1    1    2    0  501  0.94697971011E+02 -0.73353492686E+02  0.80558340802E+02  0.14435403311E+03  0.00000000000E+00 0.  1.
<mgrwt>
<rscale>  0 0.83409158E+02</rscale>
<asrwt>0</asrwt>
<pdfrwt beam="1">  1        1 0.49820897E+00 0.58729606E+02</pdfrwt>
<pdfrwt beam="2">  1       -1 0.18606577E-01 0.11845963E+03</pdfrwt>
<totfact> 0.14320289E+01</totfact>
</mgrwt>
</event>
<event>
10   0  0.7688500E-08  0.4439469E+03  0.7546771E-02  0.1039898E+00
        2   -1    0    0  502    0  0.00000000000E+00  0.00000000000E+00  0.23030588002E+04  0.23030588002E+04  0.00000000000E+00 0. -1.
        1   -1    0    0  501    0  0.00000000000E+00  0.00000000000E+00 -0.92021765132E+03  0.92021765132E+03  0.00000000000E+00 0. -1.
       23    2    1    2    0    0  0.49767319871E+02  0.40087236004E+02 -0.11663599329E+03  0.16083791757E+03  0.90449478593E+02 0.  0.
       23    2    1    2    0    0  0.16242363309E+03 -0.35740454292E+02 -0.27015461792E+03  0.32577528275E+03  0.74075641135E+02 0.  0.
      -11    1    4    4    0    0  0.28066679217E+02 -0.28244699632E+02 -0.10770736386E+03  0.11483195448E+03  0.00000000000E+00 0.  1.
       11    1    4    4    0    0  0.13435695387E+03 -0.74957546594E+01 -0.16244725406E+03  0.21094332828E+03  0.00000000000E+00 0. -1.
      -13    1    3    3    0    0  0.12198396828E+02 -0.20848374106E+02 -0.73251646395E+02  0.77131441628E+02  0.00000000000E+00 0. -1.
       13    1    3    3    0    0  0.37568923042E+02  0.60935610110E+02 -0.43384346900E+02  0.83706475938E+02  0.00000000000E+00 0.  1.
        2    1    1    2  501    0  0.61804387988E+02 -0.37622154296E+03 -0.37980252792E+03  0.53815647536E+03  0.00000000000E+00 0. -1.
        1    1    1    2  502    0 -0.27399534095E+03  0.37187476125E+03  0.21494342880E+04  0.21985067758E+04  0.00000000000E+00 0. -1.
<mgrwt>
<rscale>  0 0.41141350E+03</rscale>
<asrwt>0</asrwt>
<pdfrwt beam="1">  1        2 0.35431674E+00 0.44394687E+03</pdfrwt>
<pdfrwt beam="2">  1        1 0.14157195E+00 0.38126425E+03</pdfrwt>
<totfact> 0.12127844E+01</totfact>
</mgrwt>
</event>
<event>
10   0  0.7688500E-08  0.6555412E+02  0.7546771E-02  0.1522441E+00
        2   -1    0    0  502    0  0.00000000000E+00  0.00000000000E+00  0.18767621308E+04  0.18767621308E+04  0.00000000000E+00 0. -1.
        1   -1    0    0  501    0  0.00000000000E+00  0.00000000000E+00 -0.69647812167E+03  0.69647812167E+03  0.00000000000E+00 0. -1.
       23    2    1    2    0    0 -0.28721493765E+01  0.19897522134E+02 -0.28094922557E+02  0.97288647756E+02  0.90948313231E+02 0.  0.
       23    2    1    2    0    0 -0.36254329621E+02 -0.39286198976E+02 -0.55641277649E+03  0.56689203348E+03  0.94411958695E+02 0.  0.
      -11    1    3    3    0    0  0.32163331514E+02 -0.21557305022E+02 -0.14401259979E+02  0.41310937812E+02  0.00000000000E+00 0.  1.
       11    1    3    3    0    0 -0.35035480890E+02  0.41454827157E+02 -0.13693662578E+02  0.55977709944E+02  0.00000000000E+00 0. -1.
      -13    1    4    4    0    0 -0.14833024465E+02 -0.46886853166E+02 -0.11730209843E+03  0.12719346647E+03  0.00000000000E+00 0.  1.
       13    1    4    4    0    0 -0.21421305155E+02  0.76006541899E+01 -0.43911067805E+03  0.43969856702E+03  0.00000000000E+00 0. -1.
        2    1    1    2  501    0 -0.21386400058E+02 -0.58747084428E+01 -0.69829421600E+02  0.73266898581E+02  0.00000000000E+00 0. -1.
        1    1    1    2  502    0  0.60512879055E+02  0.25263385284E+02  0.18346211297E+04  0.18357926726E+04  0.00000000000E+00 0. -1.
<mgrwt>
<rscale>  0 0.38130024E+02</rscale>
<asrwt>0</asrwt>
<pdfrwt beam="1">  1        2 0.28873264E+00 0.65554125E+02</pdfrwt>
<pdfrwt beam="2">  1        1 0.10715048E+00 0.22178600E+02</pdfrwt>
<totfact> 0.43069002E+01</totfact>
</mgrwt>
</event>
<event>
10   0  0.7688500E-08  0.1074130E+03  0.7546771E-02  0.1487439E+00
        2   -1    0    0  502    0  0.00000000000E+00  0.00000000000E+00  0.11915384971E+04  0.11915384971E+04  0.00000000000E+00 0. -1.
       -2   -1    0    0    0  501  0.00000000000E+00  0.00000000000E+00 -0.30859802905E+03  0.30859802905E+03  0.00000000000E+00 0.  1.
       23    2    1    2    0    0  0.97663383338E+02 -0.64771493593E+01 -0.24888621626E+03  0.28277581546E+03  0.91857080592E+02 0.  0.
       23    2    1    2    0    0  0.11928444604E+02 -0.73361461215E+02  0.11732633003E+03  0.16671304136E+03  0.92214850529E+02 0.  0.
      -11    1    3    3    0    0  0.80931594792E+02 -0.25775851590E+02 -0.24177771942E+03  0.25626311316E+03  0.00000000000E+00 0.  1.
       11    1    3    3    0    0  0.16731788545E+02  0.19298702231E+02 -0.71084968438E+01  0.26512702297E+02  0.00000000000E+00 0. -1.
      -13    1    4    4    0    0  0.41252752140E+02 -0.12596526908E+02  0.76584322068E+02  0.87895508622E+02  0.00000000000E+00 0. -1.
       13    1    4    4    0    0 -0.29324307536E+02 -0.60764934307E+02  0.40742007962E+02  0.78817532736E+02  0.00000000000E+00 0.  1.
        1    1    1    2  502    0 -0.10953349296E+03  0.62650144952E+02  0.10234975384E+04  0.10312467396E+04  0.00000000000E+00 0. -1.
       -1    1    1    2    0  501 -0.58334977195E-01  0.17188465623E+02 -0.89971841258E+01  0.19400929762E+02  0.00000000000E+00 0.  1.
<mgrwt>
<rscale>  0 0.42968316E+02</rscale>
<asrwt>0</asrwt>
<pdfrwt beam="1">  1        2 0.18331361E+00 0.10741305E+03</pdfrwt>
<pdfrwt beam="2">  1       -2 0.47476620E-01 0.17188565E+02</pdfrwt>
<totfact> 0.90141493E+01</totfact>
</mgrwt>
</event>
<event>
10   0  0.7688500E-08  0.1473035E+03  0.7546771E-02  0.1243922E+00
        1   -1    0    0  502    0  0.00000000000E+00  0.00000000000E+00  0.19633778505E+04  0.19633778505E+04  0.00000000000E+00 0. -1.
       -3   -1    0    0    0  501  0.00000000000E+00  0.00000000000E+00 -0.33025083388E+03  0.33025083388E+03  0.00000000000E+00 0.  1.
       23    2    1    2    0    0  0.13370207359E+03 -0.24337513251E+02  0.54658947304E+03  0.57119374813E+03  0.95045709164E+02 0.  0.
       23    2    1    2    0    0 -0.95021873330E+02  0.70092568415E+02 -0.78002825089E+02  0.17487879869E+03  0.10274253720E+03 0.  0.
      -11    1    3    3    0    0  0.13256806279E+03  0.59033468796E+00  0.37380602128E+03  0.39661767650E+03  0.00000000000E+00 0.  1.
       11    1    3    3    0    0  0.11340107974E+01 -0.24927847939E+02  0.17278345176E+03  0.17457607163E+03  0.00000000000E+00 0. -1.
      -13    1    4    4    0    0 -0.71469623801E+02  0.34424858033E+00 -0.71304475770E+02  0.10095718844E+03  0.00000000000E+00 0.  1.
       13    1    4    4    0    0 -0.23552249529E+02  0.69748319834E+02 -0.66983493186E+01  0.73921610245E+02  0.00000000000E+00 0. -1.
        2    1    1    2  502    0  0.91204195555E+02  0.32868441930E+02  0.13239024935E+04  0.13274473067E+04  0.00000000000E+00 0. -1.
       -4    1    1    2    0  501 -0.12988439581E+03 -0.78623497094E+02 -0.15936212486E+03  0.22010883083E+03  0.00000000000E+00 0.  1.
<mgrwt>
<rscale>  0 0.11950103E+03</rscale>
<asrwt>0</asrwt>
<pdfrwt beam="1">  1        1 0.30205813E+00 0.96946066E+02</pdfrwt>
<pdfrwt beam="2">  1       -3 0.50807821E-01 0.14730352E+03</pdfrwt>
<totfact> 0.83505480E+00</totfact>
</mgrwt>
</event>
<event>
11   0  0.7688500E-08  0.2042645E+03  0.7546771E-02  0.1169527E+00
       -1   -1    0    0    0  501  0.00000000000E+00  0.00000000000E+00  0.12133363131E+03  0.12133363131E+03  0.00000000000E+00 0.  1.
        2   -1    0    0  501    0  0.00000000000E+00  0.00000000000E+00 -0.31809398985E+04  0.31809398985E+04  0.00000000000E+00 0. -1.
       23    2    1    2    0    0  0.67946729063E+02  0.34898096691E+02 -0.11493697819E+04  0.11554520225E+04  0.90464609129E+02 0.  0.
       24    2    1    2    0    0  0.90708348014E+02 -0.13014777091E+03 -0.19316283958E+04  0.19398151465E+04  0.80796635642E+02 0.  0.
       23    2    1    2    0    0 -0.15865507708E+03  0.95249674214E+02  0.21391910560E+02  0.20700636084E+03  0.90277824905E+02 0.  0.
      -11    1    3    3    0    0  0.53814345159E+02  0.21714850773E+01 -0.26781652507E+03  0.27317831208E+03  0.00000000000E+00 0.  1.
       11    1    3    3    0    0  0.14132383904E+02  0.32726611614E+02 -0.88155325685E+03  0.88227371039E+03  0.00000000000E+00 0. -1.
      -13    1    5    5    0    0  0.10082227467E+02  0.16790558133E+02  0.49127869369E+01  0.20191820835E+02  0.00000000000E+00 0. -1.
       13    1    5    5    0    0 -0.16873730454E+03  0.78459116081E+02  0.16479123623E+02  0.18681454000E+03  0.00000000000E+00 0.  1.
        2    1    4    4  502    0  0.34503867851E+02 -0.59095908693E+02 -0.42578068406E+03  0.43124474981E+03  0.00000000000E+00 0. -1.
       -1    1    4    4    0  502  0.56204480163E+02 -0.71051862212E+02 -0.15058477118E+04  0.15085703967E+04  0.00000000000E+00 0.  1.
<mgrwt>
<rscale>  0 0.17823061E+03</rscale>
<asrwt>0</asrwt>
<pdfrwt beam="1">  1        2 0.48937537E+00 0.20426450E+03</pdfrwt>
<pdfrwt beam="2">  1       -1 0.18666713E-01 0.20426450E+03</pdfrwt>
<totfact> 0.43442962E+01</totfact>
</mgrwt>
</event>
<event>
10   0  0.7688500E-08  0.2952411E+03  0.7546771E-02  0.1170560E+00
        1   -1    0    0  501    0  0.00000000000E+00  0.00000000000E+00  0.16769821152E+04  0.16769821152E+04  0.00000000000E+00 0. -1.
        2   -1    0    0  502    0  0.00000000000E+00  0.00000000000E+00 -0.84939049032E+03  0.84939049032E+03  0.00000000000E+00 0. -1.
       23    2    1    2    0    0  0.18650270183E+03 -0.45314598672E+02 -0.31495374884E+03  0.37632320594E+03  0.74743700578E+02 0.  0.
       23    2    1    2    0    0 -0.33449529579E+01 -0.38512778335E+02  0.23577405291E+02  0.10476035478E+03  0.94469122410E+02 0.  0.
      -11    1    4    4    0    0 -0.34720387470E+02 -0.22675459978E+02  0.46881378072E+02  0.62590297980E+02  0.00000000000E+00 0.  1.
       11    1    4    4    0    0  0.31375434512E+02 -0.15837318357E+02 -0.23303972781E+02  0.42170056805E+02  0.00000000000E+00 0. -1.
      -13    1    3    3    0    0  0.85155173401E+02 -0.37944515255E+02 -0.90451016278E+02  0.12989448079E+03  0.00000000000E+00 0.  1.
       13    1    3    3    0    0  0.10134752843E+03 -0.73700834169E+01 -0.22450273257E+03  0.24642872515E+03  0.00000000000E+00 0. -1.
        2    1    1    2  501    0 -0.29516843506E+03  0.50849177812E+02  0.15602919204E+04  0.15887796955E+04  0.00000000000E+00 0. -1.
        1    1    1    2  502    0  0.11201068618E+03  0.32978199195E+02 -0.44132395196E+03  0.45650934932E+03  0.00000000000E+00 0. -1.
<mgrwt>
<rscale>  0 0.17718009E+03</rscale>
<asrwt>0</asrwt>
<pdfrwt beam="1">  1        2 0.13067546E+00 0.10632931E+03</pdfrwt>
<pdfrwt beam="2">  1        1 0.25799725E+00 0.29524113E+03</pdfrwt>
<totfact> 0.25476833E+01</totfact>
</mgrwt>
</event>
<event>
10   0  0.7688500E-08  0.7965707E+02  0.7546771E-02  0.1344704E+00
       -2   -1    0    0    0  501  0.00000000000E+00  0.00000000000E+00  0.70663602114E+03  0.70663602114E+03  0.00000000000E+00 0.  1.
       -3   -1    0    0    0  502  0.00000000000E+00  0.00000000000E+00 -0.63994599519E+03  0.63994599519E+03  0.00000000000E+00 0.  1.
       23    2    1    2    0    0  0.10515509383E+02  0.31642002124E+02 -0.73959440353E+02  0.12273868842E+03  0.92103173570E+02 0.  0.
       23    2    1    2    0    0  0.66295870541E+01  0.90435708430E+01  0.14348947632E+02  0.94995585740E+02  0.93233746110E+02 0.  0.
      -11    1    3    3    0    0  0.23435341156E+02 -0.25950308994E+02 -0.45015362490E+02  0.57000145720E+02  0.00000000000E+00 0.  1.
       11    1    3    3    0    0 -0.12919831773E+02  0.57592311118E+02 -0.28944077864E+02  0.65738542700E+02  0.00000000000E+00 0. -1.
      -13    1    4    4    0    0 -0.35507460643E+02 -0.18987589293E+02 -0.54878795418E+01  0.40637730378E+02  0.00000000000E+00 0. -1.
       13    1    4    4    0    0  0.42137047697E+02  0.28031160136E+02  0.19836827173E+02  0.54357855361E+02  0.00000000000E+00 0.  1.
       -4    1    1    2    0  502  0.48024895226E+02 -0.66538478939E+02 -0.49593333263E+03  0.50267646668E+03  0.00000000000E+00 0.  1.
       -1    1    1    2    0  501 -0.65169991663E+02  0.25852905972E+02  0.62223385130E+03  0.62617127550E+03  0.00000000000E+00 0.  1.
<mgrwt>
<rscale>  0 0.74731568E+02</rscale>
<asrwt>0</asrwt>
<pdfrwt beam="1">  1       -2 0.10871323E+00 0.70110631E+02</pdfrwt>
<pdfrwt beam="2">  1       -3 0.98453230E-01 0.79657068E+02</pdfrwt>
<totfact> 0.27382394E+00</totfact>
</mgrwt>
</event>
<event>
10   0  0.7688500E-08  0.7153725E+02  0.7546771E-02  0.1356126E+00
        1   -1    0    0  502    0  0.00000000000E+00  0.00000000000E+00  0.11323257389E+04  0.11323257389E+04  0.00000000000E+00 0. -1.
       -3   -1    0    0    0  501  0.00000000000E+00  0.00000000000E+00 -0.11640595677E+03  0.11640595677E+03  0.00000000000E+00 0.  1.
       23    2    1    2    0    0  0.11986708077E+03 -0.11751682153E+03  0.34475744744E+03  0.39412472033E+03  0.91094880251E+02 0.  0.
       23    2    1    2    0    0 -0.17506879268E+03  0.52239730997E+02  0.10688664926E+03  0.23100971320E+03  0.92534642908E+02 0.  0.
      -11    1    3    3    0    0  0.66590422950E+02 -0.11803146111E+03  0.21890354883E+03  0.25745771290E+03  0.00000000000E+00 0.  1.
       11    1    3    3    0    0  0.53276657824E+02  0.51463957962E+00  0.12585389861E+03  0.13666700743E+03  0.00000000000E+00 0. -1.
      -13    1    4    4    0    0 -0.14665515007E+03  0.22271032944E+02  0.42126139375E+02  0.15420228134E+03  0.00000000000E+00 0.  1.
       13    1    4    4    0    0 -0.28413642612E+02  0.29968698052E+02  0.64760509886E+02  0.76807431868E+02  0.00000000000E+00 0. -1.
        2    1    1    2  502    0  0.71962306004E+02 -0.35357798366E+01  0.54562044784E+03  0.55035692812E+03  0.00000000000E+00 0. -1.
       -4    1    1    2    0  501 -0.16760594097E+02  0.68812870373E+02  0.18655237624E+02  0.73240334067E+02  0.00000000000E+00 0.  1.
<mgrwt>
<rscale>  0 0.71180051E+02</rscale>
<asrwt>0</asrwt>
<pdfrwt beam="1">  1        1 0.17420396E+00 0.71537253E+02</pdfrwt>
<pdfrwt beam="2">  1       -3 0.17908609E-01 0.70824633E+02</pdfrwt>
<totfact> 0.19008646E+02</totfact>
</mgrwt>
</event>
<event>
10   0  0.7688500E-08  0.2591949E+03  0.7546771E-02  0.1145895E+00
        2   -1    0    0  502    0  0.00000000000E+00  0.00000000000E+00  0.41203941655E+03  0.41203941655E+03  0.00000000000E+00 0. -1.
        1   -1    0    0  501    0  0.00000000000E+00  0.00000000000E+00 -0.21824343842E+04  0.21824343842E+04  0.00000000000E+00 0. -1.
       23    2    1    2    0    0  0.16272314715E+02  0.22891133197E+02 -0.58718252806E+03  0.59575188751E+03  0.96686079731E+02 0.  0.
       23    2    1    2    0    0 -0.24480965093E+02 -0.18252222738E+03 -0.76756167750E+03  0.79449406827E+03  0.90311763368E+02 0.  0.
      -11    1    3    3    0    0  0.32247423950E+01 -0.37868300423E+02 -0.19386505918E+03  0.19755522851E+03  0.00000000000E+00 0.  1.
       11    1    3    3    0    0  0.13047572320E+02  0.60759433620E+02 -0.39331746888E+03  0.39819665900E+03  0.00000000000E+00 0. -1.
      -13    1    4    4    0    0 -0.23902347377E+02 -0.17534475310E+03 -0.57086020612E+03  0.59766083992E+03  0.00000000000E+00 0. -1.
       13    1    4    4    0    0 -0.57861771638E+00 -0.71774742811E+01 -0.19670147139E+03  0.19683322834E+03  0.00000000000E+00 0.  1.
        2    1    1    2  501    0  0.20157072586E+03 -0.21534760581E+02 -0.75040048028E+03  0.77730006062E+03  0.00000000000E+00 0. -1.
        1    1    1    2  502    0 -0.19336207548E+03  0.18116585476E+03  0.33474971823E+03  0.42692778432E+03  0.00000000000E+00 0. -1.
<mgrwt>
<rscale>  0 0.20462492E+03</rscale>
<asrwt>0</asrwt>
<pdfrwt beam="1">  1        2 0.63390679E-01 0.25919495E+03</pdfrwt>
<pdfrwt beam="2">  1        1 0.33575914E+00 0.16154389E+03</pdfrwt>
<totfact> 0.28950151E+01</totfact>
</mgrwt>
</event>
<event>
10   0  0.7688500E-08  0.1266289E+03  0.7546771E-02  0.1360602E+00
       -1   -1    0    0    0  501  0.00000000000E+00  0.00000000000E+00  0.68068503217E+03  0.68068503217E+03  0.00000000000E+00 0.  1.
        1   -1    0    0  502    0  0.00000000000E+00  0.00000000000E+00 -0.10744340196E+04  0.10744340196E+04  0.00000000000E+00 0. -1.
       23    2    1    2    0    0 -0.58066509900E+02  0.13690704941E+03 -0.65491504272E+03  0.67829037311E+03  0.95125481985E+02 0.  0.
       23    2    1    2    0    0  0.15427976403E+03 -0.14591217990E+03 -0.21934290127E+03  0.31868772944E+03  0.91421828484E+02 0.  0.
      -11    1    3    3    0    0 -0.27106480445E+02  0.46698593790E+02 -0.86789883319E+02  0.10221547726E+03  0.00000000000E+00 0.  1.
       11    1    3    3    0    0 -0.30960029455E+02  0.90208455618E+02 -0.56812515940E+03  0.57607489585E+03  0.00000000000E+00 0. -1.
      -13    1    4    4    0    0  0.62505421977E+02 -0.89500777242E+02 -0.55139641182E+02  0.12230166366E+03  0.00000000000E+00 0.  1.
       13    1    4    4    0    0  0.91774342051E+02 -0.56411402661E+02 -0.16420326009E+03  0.19638606578E+03  0.00000000000E+00 0. -1.
        2    1    1    2  502    0  0.29682190038E+02  0.24567935920E+02 -0.12948511543E+03  0.13509630268E+03  0.00000000000E+00 0. -1.
       -2    1    1    2    0  501 -0.12589544417E+03 -0.15562805424E+02  0.60999407197E+03  0.62304464656E+03  0.00000000000E+00 0.  1.
<mgrwt>
<rscale>  0 0.69850565E+02</rscale>
<asrwt>0</asrwt>
<pdfrwt beam="1">  1        1 0.16529754E+00 0.38530713E+02</pdfrwt>
<pdfrwt beam="2">  1       -1 0.10472077E+00 0.12662889E+03</pdfrwt>
<totfact> 0.15430069E+01</totfact>
</mgrwt>
</event>
<event>
11   0  0.7688500E-08  0.2294615E+03  0.7546771E-02  0.1127019E+00
        3   -1    0    0  501    0  0.00000000000E+00  0.00000000000E+00  0.21381065454E+03  0.21381065454E+03  0.00000000000E+00 0. -1.
       -3   -1    0    0    0  501  0.00000000000E+00  0.00000000000E+00 -0.61564471791E+02  0.61564471791E+02  0.00000000000E+00 0.  1.
       23    2    1    2    0    0  0.81284514239E+01  0.33323855301E+02  0.83204730340E+02  0.12851223043E+03  0.91737752120E+02 0.  0.
       25    2    1    2    0    0 -0.81284514239E+01 -0.33323855301E+02  0.69041452411E+02  0.14686289591E+03  0.12500174794E+03 0.  0.
       23    2    4    4    0    0 -0.16656994923E+02 -0.38832610031E+02  0.57724918956E+02  0.11607514185E+03  0.91410312360E+02 0.  0.
      -11    1    3    3    0    0 -0.28398395475E+02  0.29421090544E+02  0.38555145963E+01  0.41072307302E+02  0.00000000000E+00 0.  1.
       11    1    3    3    0    0  0.36526846899E+02  0.39027647572E+01  0.79349215743E+02  0.87439923126E+02  0.00000000000E+00 0. -1.
      -13    1    5    5    0    0 -0.32041574313E+02 -0.63287836114E+02  0.47746078464E+02  0.85508483165E+02  0.00000000000E+00 0.  1.
       13    1    5    5    0    0  0.15384579390E+02  0.24455226082E+02  0.99788404917E+01  0.30566658687E+02  0.00000000000E+00 0. -1.
        3    1    4    4  502    0  0.97892031692E+01 -0.73920035166E+01 -0.17402133892E+01  0.12389453471E+02  0.00000000000E+00 0. -1.
       -3    1    4    4    0  502 -0.12606596697E+01  0.12900758247E+02  0.13056746844E+02  0.18398300582E+02  0.00000000000E+00 0.  1.
<mgrwt>
<rscale>  0 0.22946146E+03</rscale>
<asrwt>0</asrwt>
<pdfrwt beam="1">  1        3 0.32893947E-01 0.22946146E+03</pdfrwt>
<pdfrwt beam="2">  1       -3 0.94714572E-02 0.22946146E+03</pdfrwt>
<totfact> 0.18168703E+03</totfact>
</mgrwt>
</event>
<event>
10   0  0.7688500E-08  0.7206773E+02  0.7546771E-02  0.1392281E+00
        1   -1    0    0  501    0  0.00000000000E+00  0.00000000000E+00  0.26293572048E+03  0.26293572048E+03  0.00000000000E+00 0. -1.
        2   -1    0    0  502    0  0.00000000000E+00  0.00000000000E+00 -0.23088005131E+04  0.23088005131E+04  0.00000000000E+00 0. -1.
       23    2    1    2    0    0 -0.19001157542E+02 -0.44079104365E+02  0.11693600350E+03  0.15745052322E+03  0.93875592781E+02 0.  0.
       23    2    1    2    0    0 -0.65809801181E+02 -0.72114684629E+01 -0.13733615925E+03  0.17612617855E+03  0.88183189576E+02 0.  0.
      -11    1    3    3    0    0 -0.20080686048E+02 -0.46074210458E+02  0.13250519196E+03  0.14171694577E+03  0.00000000000E+00 0. -1.
       11    1    3    3    0    0  0.10795285062E+01  0.19951060933E+01 -0.15569188464E+02  0.15733577455E+02  0.00000000000E+00 0.  1.
      -13    1    4    4    0    0  0.42745567010E+01 -0.22874804582E+02 -0.25595410649E+01  0.23411103564E+02  0.00000000000E+00 0. -1.
       13    1    4    4    0    0 -0.70084357882E+02  0.15663336119E+02 -0.13477661819E+03  0.15271507499E+03  0.00000000000E+00 0.  1.
        2    1    1    2  501    0  0.71085683518E+02  0.91281896459E+00  0.94109020019E+02  0.11794284755E+03  0.00000000000E+00 0. -1.
        1    1    1    2  502    0  0.13725275206E+02  0.50377753863E+02 -0.21195736569E+04  0.21202166842E+04  0.00000000000E+00 0. -1.
<mgrwt>
<rscale>  0 0.61342840E+02</rscale>
<asrwt>0</asrwt>
<pdfrwt beam="1">  1        2 0.35520008E+00 0.52213995E+02</pdfrwt>
<pdfrwt beam="2">  1        1 0.40451649E-01 0.72067730E+02</pdfrwt>
<totfact> 0.87904330E+01</totfact>
</mgrwt>
</event>
<event>
10   0  0.7688500E-08  0.9525954E+02  0.7546771E-02  0.1487709E+00
        1   -1    0    0  502    0  0.00000000000E+00  0.00000000000E+00  0.15011678867E+03  0.15011678867E+03  0.00000000000E+00 0. -1.
        1   -1    0    0  501    0  0.00000000000E+00  0.00000000000E+00 -0.19474578719E+04  0.19474578719E+04  0.00000000000E+00 0. -1.
       23    2    1    2    0    0 -0.10860532315E+01  0.18576748684E+02 -0.31793530546E+02  0.95971403369E+02  0.88619448073E+02 0.  0.
       23    2    1    2    0    0 -0.23906648670E+02  0.65402340439E+02 -0.26958701645E+02  0.11768026287E+03  0.90955366464E+02 0.  0.
      -11    1    4    4    0    0 -0.11429787084E+02  0.81158487076E+01  0.31751677364E+02  0.34708443475E+02  0.00000000000E+00 0. -1.
       11    1    4    4    0    0 -0.12476861586E+02  0.57286491732E+02 -0.58710379009E+02  0.82971819393E+02  0.00000000000E+00 0.  1.
      -13    1    3    3    0    0 -0.36948271312E+02  0.44404714986E+01  0.10578613875E+02  0.38688494564E+02  0.00000000000E+00 0.  1.
       13    1    3    3    0    0  0.35862218081E+02  0.14136277185E+02 -0.42372144421E+02  0.57282908805E+02  0.00000000000E+00 0. -1.
        1    1    1    2  501    0  0.44301549088E+02 -0.85160583658E+02 -0.18086726750E+04  0.18112183186E+04  0.00000000000E+00 0. -1.
        1    1    1    2  502    0 -0.19308847187E+02  0.11814945347E+01  0.70083823916E+02  0.72704675803E+02  0.00000000000E+00 0. -1.
<mgrwt>
<rscale>  0 0.42927754E+02</rscale>
<asrwt>0</asrwt>
<pdfrwt beam="1">  1        1 0.23094891E-01 0.19344961E+02</pdfrwt>
<pdfrwt beam="2">  1        1 0.29960890E+00 0.95259539E+02</pdfrwt>
<totfact> 0.95456026E+01</totfact>
</mgrwt>
</event>
<event>
10   0  0.7688500E-08  0.1617700E+03  0.7546771E-02  0.1227838E+00
        2   -1    0    0  502    0  0.00000000000E+00  0.00000000000E+00  0.74698013674E+03  0.74698013674E+03  0.00000000000E+00 0. -1.
        1   -1    0    0  501    0  0.00000000000E+00  0.00000000000E+00 -0.35163387754E+03  0.35163387754E+03  0.00000000000E+00 0. -1.
       23    2    1    2    0    0  0.55620303328E+02 -0.15083728298E+03  0.67489147593E+01  0.18601376091E+03  0.93327741422E+02 0.  0.
       23    2    1    2    0    0  0.35100943301E+02  0.27401825320E+02  0.12482423192E+02  0.10753503824E+03  0.97082631346E+02 0.  0.
      -11    1    4    4    0    0 -0.18002260076E+02  0.12912964871E+02  0.40204047521E+02  0.45904155223E+02  0.00000000000E+00 0.  1.
       11    1    4    4    0    0  0.53103203377E+02  0.14488860449E+02 -0.27721624329E+02  0.61630883017E+02  0.00000000000E+00 0. -1.
      -13    1    3    3    0    0  0.13110861856E+02 -0.22723876939E+02 -0.35891096658E+02  0.44457171537E+02  0.00000000000E+00 0.  1.
       13    1    3    3    0    0  0.42509441472E+02 -0.12811340604E+03  0.42640011417E+02  0.14155658938E+03  0.00000000000E+00 0. -1.
        2    1    1    2  501    0  0.46744071557E+01  0.16499731027E+03 -0.17713113980E+03  0.24211857253E+03  0.00000000000E+00 0. -1.
        1    1    1    2  502    0 -0.95395653785E+02 -0.41561852602E+02  0.55324606105E+03  0.56294664260E+03  0.00000000000E+00 0. -1.
<mgrwt>
<rscale>  0 0.12974280E+03</rscale>
<asrwt>0</asrwt>
<pdfrwt beam="1">  1        2 0.11492002E+00 0.10405632E+03</pdfrwt>
<pdfrwt beam="2">  1        1 0.54097520E-01 0.16177003E+03</pdfrwt>
<totfact> 0.39207989E+02</totfact>
</mgrwt>
</event>
<event>
11   0  0.7688500E-08  0.1337402E+03  0.7546771E-02  0.1231425E+00
       -2   -1    0    0    0  501  0.00000000000E+00  0.00000000000E+00  0.81639260584E+02  0.81639260584E+02  0.00000000000E+00 0.  1.
        1   -1    0    0  501    0  0.00000000000E+00  0.00000000000E+00 -0.57621147577E+03  0.57621147577E+03  0.00000000000E+00 0. -1.
      -24    2    1    2    0    0 -0.33447966764E+02  0.10880604979E+03 -0.28851387264E+03  0.31972421770E+03  0.77626011909E+02 0.  0.
       23    2    1    2    0    0 -0.18696719708E+02 -0.94524672068E+02 -0.18781810814E+03  0.23025084611E+03  0.91952865260E+02 0.  0.
       23    2    1    2    0    0  0.52144686472E+02 -0.14281377723E+02 -0.18240234403E+02  0.10787567255E+03  0.91550141996E+02 0.  0.
      -11    1    4    4    0    0 -0.26285823050E+02 -0.93668649353E+02 -0.91259303398E+02  0.13339048250E+03  0.00000000000E+00 0.  1.
       11    1    4    4    0    0  0.75891033427E+01 -0.85602271491E+00 -0.96558804742E+02  0.96860363605E+02  0.00000000000E+00 0. -1.
      -13    1    5    5    0    0 -0.12881341570E+02  0.20348371515E+02  0.13554562098E+02  0.27635327709E+02  0.00000000000E+00 0.  1.
       13    1    5    5    0    0  0.65026028042E+02 -0.34629749237E+02 -0.31794796501E+02  0.80240344838E+02  0.00000000000E+00 0. -1.
        3    1    3    3  502    0 -0.40169163823E+02  0.89847917171E+02 -0.14773560000E+03  0.17751624559E+03  0.00000000000E+00 0. -1.
       -4    1    3    3    0  502  0.67211970592E+01  0.18958132620E+02 -0.14077827264E+03  0.14220797211E+03  0.00000000000E+00 0.  1.
<mgrwt>
<rscale>  0 0.12736109E+03</rscale>
<asrwt>0</asrwt>
<pdfrwt beam="1">  1        1 0.88647919E-01 0.13374020E+03</pdfrwt>
<pdfrwt beam="2">  1       -2 0.12559886E-01 0.13374020E+03</pdfrwt>
<totfact> 0.14822294E+03</totfact>
</mgrwt>
</event>
<event>
10   0  0.7688500E-08  0.2639270E+02  0.7546771E-02  0.1812097E+00
        3   -1    0    0  502    0  0.00000000000E+00  0.00000000000E+00  0.31215251434E+03  0.31215251434E+03  0.00000000000E+00 0. -1.
       -1   -1    0    0    0  501  0.00000000000E+00  0.00000000000E+00 -0.36716815815E+03  0.36716815815E+03  0.00000000000E+00 0.  1.
       23    2    1    2    0    0  0.14493272412E+03 -0.10214193850E+03 -0.26850015154E+03  0.33427494003E+03  0.90603167912E+02 0.  0.
       23    2    1    2    0    0 -0.12400799234E+03  0.11857830268E+03  0.20904382339E+03  0.28459142785E+03  0.88623725249E+02 0.  0.
      -11    1    3    3    0    0  0.15235947031E+03 -0.10065818858E+03 -0.22336563119E+03  0.28850941807E+03  0.00000000000E+00 0.  1.
       11    1    3    3    0    0 -0.74267461911E+01 -0.14837499212E+01 -0.45134520348E+02  0.45765521956E+02  0.00000000000E+00 0. -1.
      -13    1    4    4    0    0 -0.83641566267E+02  0.77767387542E+02  0.69477472410E+02  0.13368170161E+03  0.00000000000E+00 0. -1.
       13    1    4    4    0    0 -0.40366426075E+02  0.40810915140E+02  0.13956635098E+03  0.15090972624E+03  0.00000000000E+00 0.  1.
        4    1    1    2  502    0 -0.85209368381E+01  0.69130018103E+01  0.24777369668E+02  0.27098228841E+02  0.00000000000E+00 0. -1.
       -2    1    1    2    0  501 -0.12403794940E+02 -0.23349365990E+02 -0.20336685324E+02  0.33356075774E+02  0.00000000000E+00 0.  1.
<mgrwt>
<rscale>  0 0.17017466E+02</rscale>
<asrwt>0</asrwt>
<pdfrwt beam="1">  1        3 0.48023464E-01 0.10972509E+02</pdfrwt>
<pdfrwt beam="2">  1       -1 0.56487409E-01 0.26392700E+02</pdfrwt>
<totfact> 0.51296803E+01</totfact>
</mgrwt>
</event>
<event>
11   0  0.7688500E-08  0.3630106E+03  0.7546771E-02  0.1098795E+00
       -2   -1    0    0    0  501  0.00000000000E+00  0.00000000000E+00  0.61654761648E+03  0.61654761648E+03  0.00000000000E+00 0.  1.
        2   -1    0    0  501    0  0.00000000000E+00  0.00000000000E+00 -0.72525176189E+03  0.72525176189E+03  0.00000000000E+00 0. -1.
       23    2    1    2    0    0 -0.21919753603E+03  0.18234913066E+03 -0.54728809828E+03  0.62371446482E+03  0.90535660655E+02 0.  0.
       23    2    1    2    0    0  0.28763617097E+03 -0.21410700702E+03  0.46735632968E+03  0.59614704299E+03  0.91613212312E+02 0.  0.
       23    2    1    2    0    0 -0.68438634940E+02  0.31757876358E+02 -0.28772376810E+02  0.12193787056E+03  0.91370592355E+02 0.  0.
      -11    1    4    4    0    0  0.21895525312E+03 -0.17706317866E+03  0.41736128706E+03  0.50347116704E+03  0.00000000000E+00 0.  1.
       11    1    4    4    0    0  0.68680917853E+02 -0.37043828360E+02  0.49995042620E+02  0.92675875951E+02  0.00000000000E+00 0. -1.
      -13    1    3    3    0    0 -0.14699981248E+03  0.15009104607E+03 -0.31761133054E+03  0.38080601922E+03  0.00000000000E+00 0. -1.
       13    1    3    3    0    0 -0.72197723544E+02  0.32258084584E+02 -0.22967676774E+03  0.24290844560E+03  0.00000000000E+00 0.  1.
        3    1    5    5  502    0 -0.40591856351E+02  0.63882736617E+02 -0.14294543718E+02  0.77026208655E+02  0.00000000000E+00 0. -1.
       -3    1    5    5    0  502 -0.27846778589E+02 -0.32124860258E+02 -0.14477833093E+02  0.44911661909E+02  0.00000000000E+00 0.  1.
<mgrwt>
<rscale>  0 0.27438742E+03</rscale>
<asrwt>0</asrwt>
<pdfrwt beam="1">  1        2 0.11157719E+00 0.36301058E+03</pdfrwt>
<pdfrwt beam="2">  1       -2 0.94853479E-01 0.36301058E+03</pdfrwt>
<totfact> 0.38803333E+01</totfact>
</mgrwt>
</event>
<event>
10   0  0.7688500E-08  0.1760034E+03  0.7546771E-02  0.1208361E+00
        2   -1    0    0  502    0  0.00000000000E+00  0.00000000000E+00  0.15304641566E+04  0.15304641566E+04  0.00000000000E+00 0. -1.
       -2   -1    0    0    0  501  0.00000000000E+00  0.00000000000E+00 -0.35840974862E+03  0.35840974862E+03  0.00000000000E+00 0.  1.
       23    2    1    2    0    0 -0.24490291987E+03  0.55988132336E+02  0.55330472564E+03  0.61448482142E+03  0.91287267525E+02 0.  0.
       23    2    1    2    0    0  0.13218096094E+03  0.92179425110E+01  0.92584365244E+02  0.18686883507E+03  0.93762038876E+02 0.  0.
      -11    1    4    4    0    0  0.14968125772E+01 -0.12746398545E+02 -0.12369201736E+02  0.17824373070E+02  0.00000000000E+00 0.  1.
       11    1    4    4    0    0  0.13068414836E+03  0.21964341056E+02  0.10495356698E+03  0.16904446200E+03  0.00000000000E+00 0. -1.
      -13    1    3    3    0    0 -0.21561374738E+03  0.73810507366E+02  0.51443395566E+03  0.56265404450E+03  0.00000000000E+00 0. -1.
       13    1    3    3    0    0 -0.29289172489E+02 -0.17822375030E+02  0.38870769978E+02  0.51830776914E+02  0.00000000000E+00 0.  1.
        1    1    1    2  502    0  0.15556718441E+03  0.44116850948E+02  0.78596064564E+03  0.80242232141E+03  0.00000000000E+00 0. -1.
       -1    1    1    2    0  501 -0.42845225478E+02 -0.10932292580E+03 -0.25979532853E+03  0.28509792734E+03  0.00000000000E+00 0.  1.
<mgrwt>
<rscale>  0 0.14375721E+03</rscale>
<asrwt>0</asrwt>
<pdfrwt beam="1">  1        2 0.23545602E+00 0.17600337E+03</pdfrwt>
<pdfrwt beam="2">  1       -2 0.55139961E-01 0.11741897E+03</pdfrwt>
<totfact> 0.43702104E+01</totfact>
</mgrwt>
</event>
<event>
11   0  0.7688500E-08  0.1138556E+03  0.7546771E-02  0.1255379E+00
        1   -1    0    0  501    0  0.00000000000E+00  0.00000000000E+00  0.11547594037E+04  0.11547594037E+04  0.00000000000E+00 0. -1.
       -1   -1    0    0    0  501  0.00000000000E+00  0.00000000000E+00 -0.26846565197E+02  0.26846565197E+02  0.00000000000E+00 0.  1.
       23    2    1    2    0    0 -0.39362975154E+02  0.57223997527E+02  0.45596645144E+03  0.47068194830E+03  0.93872583356E+02 0.  0.
       23    2    1    2    0    0 -0.32635101604E+02 -0.65300819075E+02  0.33056390550E+03  0.35029037339E+03  0.90008906448E+02 0.  0.
       23    2    1    2    0    0  0.71998076758E+02  0.80768215479E+01  0.34138248155E+03  0.36063364720E+03  0.90915733960E+02 0.  0.
      -11    1    3    3    0    0 -0.18626032284E+02  0.66609568875E+02  0.16612366245E+03  0.17994675593E+03  0.00000000000E+00 0.  1.
       11    1    3    3    0    0 -0.20736942870E+02 -0.93855713486E+01  0.28984278899E+03  0.29073519237E+03  0.00000000000E+00 0. -1.
      -13    1    5    5    0    0  0.58593581583E+02 -0.36860611442E+02  0.21195644210E+03  0.22297409228E+03  0.00000000000E+00 0.  1.
       13    1    5    5    0    0  0.13404495175E+02  0.44937432990E+02  0.12942603945E+03  0.13765955492E+03  0.00000000000E+00 0. -1.
        4    1    4    4  502    0  0.86523710837E+01 -0.30251470110E+02  0.25623702694E+02  0.40578185136E+02  0.00000000000E+00 0. -1.
       -4    1    4    4    0  502 -0.41287472687E+02 -0.35049348964E+02  0.30494020281E+03  0.30971218825E+03  0.00000000000E+00 0.  1.
<mgrwt>
<rscale>  0 0.11285106E+03</rscale>
<asrwt>0</asrwt>
<pdfrwt beam="1">  1        1 0.17765529E+00 0.11385559E+03</pdfrwt>
<pdfrwt beam="2">  1       -1 0.41302408E-02 0.11385559E+03</pdfrwt>
<totfact> 0.28436163E+03</totfact>
</mgrwt>
</event>
<event>
11   0  0.7688500E-08  0.1119859E+03  0.7546771E-02  0.1265161E+00
       -1   -1    0    0    0  501  0.00000000000E+00  0.00000000000E+00  0.25321922847E+03  0.25321922847E+03  0.00000000000E+00 0.  1.
        2   -1    0    0  501    0  0.00000000000E+00  0.00000000000E+00 -0.31366154039E+03  0.31366154039E+03  0.00000000000E+00 0. -1.
       23    2    1    2    0    0  0.78427613412E+02 -0.22876983107E+02 -0.15491349337E+03  0.19771883406E+03  0.91762192729E+02 0.  0.
       24    2    1    2    0    0 -0.69536898438E+02  0.15343218561E+02  0.20159355093E+03  0.22826419209E+03  0.79961159391E+02 0.  0.
       23    2    1    2    0    0 -0.88907149743E+01  0.75337645460E+01 -0.10712236948E+03  0.14089774272E+03  0.90780886962E+02 0.  0.
      -11    1    5    5    0    0 -0.28557982097E+02 -0.22922074291E+02 -0.11108457499E+02  0.38267187763E+02  0.00000000000E+00 0. -1.
       11    1    5    5    0    0  0.19667267123E+02  0.30455838837E+02 -0.96013911986E+02  0.10263055495E+03  0.00000000000E+00 0.  1.
      -13    1    3    3    0    0  0.16077248817E+02 -0.50941136284E+02 -0.55206468685E+02  0.76819473313E+02  0.00000000000E+00 0.  1.
       13    1    3    3    0    0  0.62350364595E+02  0.28064153178E+02 -0.99707024683E+02  0.12089936075E+03  0.00000000000E+00 0. -1.
        4    1    4    4  502    0 -0.10916693919E+02  0.19870293529E+02  0.52022070955E+01  0.23260819627E+02  0.00000000000E+00 0. -1.
       -3    1    4    4    0  502 -0.58620204518E+02 -0.45270749685E+01  0.19639134384E+03  0.20500337246E+03  0.00000000000E+00 0.  1.
<mgrwt>
<rscale>  0 0.10755728E+03</rscale>
<asrwt>0</asrwt>
<pdfrwt beam="1">  1        2 0.48255622E-01 0.11198589E+03</pdfrwt>
<pdfrwt beam="2">  1       -1 0.38956804E-01 0.11198589E+03</pdfrwt>
<totfact> 0.76723752E+02</totfact>
</mgrwt>
</event>
<event>
10   0  0.7688500E-08  0.2382274E+03  0.7546771E-02  0.1154258E+00
        1   -1    0    0  501    0  0.00000000000E+00  0.00000000000E+00  0.92220321276E+03  0.92220321276E+03  0.00000000000E+00 0. -1.
        2   -1    0    0  502    0  0.00000000000E+00  0.00000000000E+00 -0.10974782452E+04  0.10974782452E+04  0.00000000000E+00 0. -1.
       23    2    1    2    0    0  0.70290822215E+02  0.14989664647E+02  0.15846900382E+03  0.19688408781E+03  0.92116389012E+02 0.  0.
       23    2    1    2    0    0 -0.53294517943E+02 -0.16833613112E+02  0.13740595159E+03  0.17376499098E+03  0.90499725881E+02 0.  0.
      -11    1    4    4    0    0 -0.64416576100E+02 -0.31939512169E+02  0.13732176733E+03  0.15500611439E+03  0.00000000000E+00 0. -1.
       11    1    4    4    0    0  0.11122058157E+02  0.15105899057E+02  0.84184256178E-01  0.18758876591E+02  0.00000000000E+00 0.  1.
      -13    1    3    3    0    0  0.17491779389E+02 -0.37284931501E+02  0.42707335264E+02  0.59329966700E+02  0.00000000000E+00 0.  1.
       13    1    3    3    0    0  0.52799042826E+02  0.52274596148E+02  0.11576166856E+03  0.13755412111E+03  0.00000000000E+00 0. -1.
        2    1    1    2  501    0 -0.25007532490E+03  0.49150242370E+02  0.54700793147E+03  0.60346589924E+03  0.00000000000E+00 0. -1.
        1    1    1    2  502    0  0.23307902062E+03 -0.47306293905E+02 -0.10181579193E+04  0.10455664799E+04  0.00000000000E+00 0. -1.
<mgrwt>
<rscale>  0 0.19473554E+03</rscale>
<asrwt>0</asrwt>
<pdfrwt beam="1">  1        2 0.16884281E+00 0.23822740E+03</pdfrwt>
<pdfrwt beam="2">  1        1 0.14187742E+00 0.15918374E+03</pdfrwt>
<totfact> 0.60088794E+01</totfact>
</mgrwt>
</event>
<event>
10   0  0.7688500E-08  0.3034853E+03  0.7546771E-02  0.1331478E+00
        2   -1    0    0  502    0  0.00000000000E+00  0.00000000000E+00  0.16300599482E+04  0.16300599482E+04  0.00000000000E+00 0. -1.
        1   -1    0    0  501    0  0.00000000000E+00  0.00000000000E+00 -0.58160703099E+03  0.58160703099E+03  0.00000000000E+00 0. -1.
       23    2    1    2    0    0 -0.28597383988E+02 -0.18774072769E+03  0.78118786759E+02  0.22484625619E+03  0.91590954093E+02 0.  0.
       23    2    1    2    0    0  0.23554688432E+03 -0.37097447811E+02 -0.19622864111E+03  0.32264803960E+03  0.93474715954E+02 0.  0.
      -11    1    3    3    0    0  0.24808144010E+02 -0.50040267111E+02 -0.37522932195E+01  0.55978139003E+02  0.00000000000E+00 0.  1.
       11    1    3    3    0    0 -0.53405527998E+02 -0.13770046058E+03  0.81871079979E+02  0.16886811719E+03  0.00000000000E+00 0. -1.
      -13    1    4    4    0    0  0.73840193549E+02 -0.54787478192E+02 -0.87935704989E+02  0.12722708109E+03  0.00000000000E+00 0.  1.
       13    1    4    4    0    0  0.16170669077E+03  0.17690030380E+02 -0.10829293612E+03  0.19542095852E+03  0.00000000000E+00 0. -1.
        2    1    1    2  501    0  0.17699913421E+02  0.10623347709E+02 -0.23132029511E+03  0.23223957756E+03  0.00000000000E+00 0. -1.
        1    1    1    2  502    0 -0.22464941375E+03  0.21421482780E+03  0.13978830667E+04  0.14319331059E+04  0.00000000000E+00 0. -1.
<mgrwt>
<rscale>  0 0.79151207E+02</rscale>
<asrwt>0</asrwt>
<pdfrwt beam="1">  1        2 0.25077845E+00 0.30348532E+03</pdfrwt>
<pdfrwt beam="2">  1        1 0.89478005E-01 0.20643218E+02</pdfrwt>
<totfact> 0.63058268E+01</totfact>
</mgrwt>
</event>
<event>
10   0  0.7688500E-08  0.9277493E+02  0.7546771E-02  0.1342612E+00
        2   -1    0    0  502    0  0.00000000000E+00  0.00000000000E+00  0.10197430662E+04  0.10197430662E+04  0.00000000000E+00 0. -1.
        1   -1    0    0  501    0  0.00000000000E+00  0.00000000000E+00 -0.23347269154E+03  0.23347269154E+03  0.00000000000E+00 0. -1.
       23    2    1    2    0    0 -0.25684707032E+02  0.91825946724E+01  0.30924570230E+02  0.99865466493E+02  0.90954703747E+02 0.  0.
       23    2    1    2    0    0  0.20655778919E+02  0.27565196477E+02  0.65164698264E+03  0.65870195627E+03  0.89766229462E+02 0.  0.
      -11    1    3    3    0    0  0.33231529463E+02 -0.67704750492E+01  0.11518930123E+02  0.35817029944E+02  0.00000000000E+00 0. -1.
       11    1    3    3    0    0 -0.58916236496E+02  0.15953069722E+02  0.19405640107E+02  0.64048436549E+02  0.00000000000E+00 0.  1.
      -13    1    4    4    0    0 -0.28417536040E+02 -0.10303371500E+02  0.13458563132E+03  0.13793842096E+03  0.00000000000E+00 0. -1.
       13    1    4    4    0    0  0.49073314960E+02  0.37868567977E+02  0.51706135132E+03  0.52076353532E+03  0.00000000000E+00 0.  1.
        2    1    1    2  501    0  0.47941431369E+02 -0.80511052092E+02 -0.18079065168E+03  0.20363121098E+03  0.00000000000E+00 0. -1.
        1    1    1    2  502    0 -0.42912503257E+02  0.43763260943E+02  0.28448947345E+03  0.29101712397E+03  0.00000000000E+00 0. -1.
<mgrwt>
<rscale>  0 0.75407947E+02</rscale>
<asrwt>0</asrwt>
<pdfrwt beam="1">  1        2 0.15688355E+00 0.61291973E+02</pdfrwt>
<pdfrwt beam="2">  1        1 0.35918876E-01 0.92774930E+02</pdfrwt>
<totfact> 0.44891237E+02</totfact>
</mgrwt>
</event>
<event>
10   0  0.7688500E-08  0.2269988E+03  0.7546771E-02  0.1199372E+00
        2   -1    0    0  502    0  0.00000000000E+00  0.00000000000E+00  0.29719458704E+04  0.29719458704E+04  0.00000000000E+00 0. -1.
        1   -1    0    0  501    0  0.00000000000E+00  0.00000000000E+00 -0.99024210362E+02  0.99024210362E+02  0.00000000000E+00 0. -1.
       23    2    1    2    0    0 -0.69417546830E+01 -0.48674207839E+01  0.35979164482E+03  0.37161640520E+03  0.92611258428E+02 0.  0.
       23    2    1    2    0    0  0.21347676941E+03  0.61400720702E+02  0.58454082471E+03  0.63176752227E+03  0.89999149272E+02 0.  0.
      -11    1    4    4    0    0  0.17861705130E+03  0.76674670497E+02  0.53552641726E+03  0.56971185673E+03  0.00000000000E+00 0.  1.
       11    1    4    4    0    0  0.34859718110E+02 -0.15273949796E+02  0.49014407444E+02  0.62055665544E+02  0.00000000000E+00 0. -1.
      -13    1    3    3    0    0 -0.40337102778E+02  0.22297332655E+02  0.13258366266E+03  0.14036623707E+03  0.00000000000E+00 0.  1.
       13    1    3    3    0    0  0.33395348095E+02 -0.27164753439E+02  0.22720798216E+03  0.23125016813E+03  0.00000000000E+00 0. -1.
        2    1    1    2  501    0 -0.23039388640E+03  0.46619880223E+02  0.13539381391E+03  0.27126783991E+03  0.00000000000E+00 0. -1.
        1    1    1    2  502    0  0.23858871677E+02 -0.10315318014E+03  0.17931953766E+04  0.17963183134E+04  0.00000000000E+00 0. -1.
<mgrwt>
<rscale>  0 0.15089955E+03</rscale>
<asrwt>0</asrwt>
<pdfrwt beam="1">  1        2 0.45722244E+00 0.10031189E+03</pdfrwt>
<pdfrwt beam="2">  1        1 0.15234494E-01 0.22699876E+03</pdfrwt>
<totfact> 0.12394474E+02</totfact>
</mgrwt>
</event>
<event>
10   0  0.7688500E-08  0.1349680E+03  0.7546771E-02  0.1337889E+00
        2   -1    0    0  502    0  0.00000000000E+00  0.00000000000E+00  0.14383732293E+03  0.14383732293E+03  0.00000000000E+00 0. -1.
        1   -1    0    0  501    0  0.00000000000E+00  0.00000000000E+00 -0.11840953254E+04  0.11840953254E+04  0.00000000000E+00 0. -1.
       23    2    1    2    0    0 -0.34126682183E+02 -0.47311710582E+02 -0.54261869704E+02  0.12178693014E+03  0.92112308916E+02 0.  0.
       23    2    1    2    0    0 -0.11935169358E+03 -0.15321498324E+03 -0.51842946781E+03  0.56184768928E+03  0.95833475385E+02 0.  0.
      -11    1    4    4    0    0 -0.13503706892E+03 -0.14329731914E+03 -0.48773049667E+03  0.52597544528E+03  0.00000000000E+00 0. -1.
       11    1    4    4    0    0  0.15685375334E+02 -0.99176641022E+01 -0.30698971145E+02  0.35872244005E+02  0.00000000000E+00 0.  1.
      -13    1    3    3    0    0 -0.63337322517E+02 -0.15979432708E+02 -0.25159724098E+02  0.69999788642E+02  0.00000000000E+00 0. -1.
       13    1    3    3    0    0  0.29210640334E+02 -0.31332277874E+02 -0.29102145606E+02  0.51787141497E+02  0.00000000000E+00 0.  1.
        2    1    1    2  501    0  0.27000976933E+02  0.34601841717E+02 -0.43009300765E+03  0.43232665363E+03  0.00000000000E+00 0. -1.
        1    1    1    2  502    0  0.12647739883E+03  0.16592485211E+03 -0.37473657345E+02  0.21197137533E+03  0.00000000000E+00 0. -1.
<mgrwt>
<rscale>  0 0.76965942E+02</rscale>
<asrwt>0</asrwt>
<pdfrwt beam="1">  1        2 0.22128819E-01 0.13496796E+03</pdfrwt>
<pdfrwt beam="2">  1        1 0.18216851E+00 0.43890092E+02</pdfrwt>
<totfact> 0.44563466E+02</totfact>
</mgrwt>
</event>
<event>
10   0  0.7688500E-08  0.2102539E+03  0.7546771E-02  0.1169945E+00
        1   -1    0    0  502    0  0.00000000000E+00  0.00000000000E+00  0.21073714547E+03  0.21073714547E+03  0.00000000000E+00 0. -1.
       -3   -1    0    0    0  501  0.00000000000E+00  0.00000000000E+00 -0.23636330437E+04  0.23636330437E+04  0.00000000000E+00 0.  1.
       23    2    1    2    0    0  0.13166357779E+03 -0.91985834345E+02  0.69418192424E+02  0.19720575709E+03  0.90964464233E+02 0.  0.
       23    2    1    2    0    0  0.22568400503E+02  0.16393427347E+03 -0.34795783572E+03  0.40078873425E+03  0.11033211382E+03 0.  0.
      -11    1    4    4    0    0  0.58259382382E+02  0.14681799143E+03 -0.29556367714E+03  0.33512320941E+03  0.00000000000E+00 0.  1.
       11    1    4    4    0    0 -0.35690981879E+02  0.17116282042E+02 -0.52394158582E+02  0.65665524836E+02  0.00000000000E+00 0. -1.
      -13    1    3    3    0    0  0.73673568822E+01  0.15689663638E+02  0.17801138993E+02  0.24846006559E+02  0.00000000000E+00 0. -1.
       13    1    3    3    0    0  0.12429622091E+03 -0.10767549798E+03  0.51617053431E+02  0.17235975053E+03  0.00000000000E+00 0.  1.
        2    1    1    2  502    0 -0.22474121295E+03 -0.20475476618E+03 -0.44387265375E+03  0.53801120789E+03  0.00000000000E+00 0. -1.
       -4    1    1    2    0  501  0.70509234653E+02  0.13280632706E+03 -0.14304836011E+04  0.14383644899E+04  0.00000000000E+00 0.  1.
<mgrwt>
<rscale>  0 0.17780450E+03</rscale>
<asrwt>0</asrwt>
<pdfrwt beam="1">  1        1 0.32421099E-01 0.21025392E+03</pdfrwt>
<pdfrwt beam="2">  1       -3 0.36363585E+00 0.15036314E+03</pdfrwt>
<totfact> 0.15590117E+00</totfact>
</mgrwt>
</event>
<event>
10   0  0.7688500E-08  0.1831671E+03  0.7546771E-02  0.1225957E+00
        1   -1    0    0  501    0  0.00000000000E+00  0.00000000000E+00  0.20200032863E+04  0.20200032863E+04  0.00000000000E+00 0. -1.
        4   -1    0    0  502    0  0.00000000000E+00  0.00000000000E+00 -0.14515778783E+03  0.14515778783E+03  0.00000000000E+00 0. -1.
       23    2    1    2    0    0 -0.28856676070E+02  0.28377453997E+02  0.23284446294E+03  0.25380279140E+03  0.92527430283E+02 0.  0.
       23    2    1    2    0    0 -0.18802028902E+03  0.11664230832E+03  0.25433348206E+03  0.35028341581E+03  0.95162461739E+02 0.  0.
      -11    1    3    3    0    0 -0.10507504276E+02 -0.14717329138E+02  0.19302224697E+01  0.18186071094E+02  0.00000000000E+00 0.  1.
       11    1    3    3    0    0 -0.18349171794E+02  0.43094783134E+02  0.23091424047E+03  0.23561672031E+03  0.00000000000E+00 0. -1.
      -13    1    4    4    0    0 -0.14297150921E+03  0.84676714581E+02  0.24221347190E+03  0.29373178992E+03  0.00000000000E+00 0. -1.
       13    1    4    4    0    0 -0.45048779804E+02  0.31965593735E+02  0.12120010157E+02  0.56551625891E+02  0.00000000000E+00 0.  1.
        2    1    1    2  501    0  0.10832202641E+03 -0.82161906814E+01  0.13820820485E+04  0.13863448186E+04  0.00000000000E+00 0. -1.
        3    1    1    2  502    0  0.10855493868E+03 -0.13680357163E+03  0.55855049514E+01  0.17473004833E+03  0.00000000000E+00 0. -1.
<mgrwt>
<rscale>  0 0.13101496E+03</rscale>
<asrwt>0</asrwt>
<pdfrwt beam="1">  1        4 0.22331967E-01 0.18316712E+03</pdfrwt>
<pdfrwt beam="2">  1        1 0.31076974E+00 0.93711804E+02</pdfrwt>
<totfact> 0.31573980E+01</totfact>
</mgrwt>
</event>
<event>
11   0  0.7688500E-08  0.1470891E+03  0.7546771E-02  0.1221434E+00
       -2   -1    0    0    0  501  0.00000000000E+00  0.00000000000E+00  0.20285653324E+03  0.20285653324E+03  0.00000000000E+00 0.  1.
        1   -1    0    0  501    0  0.00000000000E+00  0.00000000000E+00 -0.10064182598E+04  0.10064182598E+04  0.00000000000E+00 0. -1.
       23    2    1    2    0    0  0.78784818927E+02 -0.97809317877E+02 -0.72821807173E+03  0.74500853184E+03  0.94670175651E+02 0.  0.
      -24    2    1    2    0    0  0.84205945082E+01  0.61989676247E+02  0.16245091746E+03  0.19168563442E+03  0.80246217903E+02 0.  0.
       23    2    1    2    0    0 -0.87205413435E+02  0.35819641630E+02 -0.23779457227E+03  0.27258062676E+03  0.94160016057E+02 0.  0.
      -11    1    5    5    0    0 -0.10127945145E+03  0.43343918193E+02 -0.16738129269E+03  0.20038143545E+03  0.00000000000E+00 0. -1.
       11    1    5    5    0    0  0.14074038019E+02 -0.75242765635E+01 -0.70413279583E+02  0.72199191309E+02  0.00000000000E+00 0.  1.
      -13    1    3    3    0    0  0.75330501656E+02 -0.74876763570E+02 -0.34243127734E+03  0.35852530441E+03  0.00000000000E+00 0.  1.
       13    1    3    3    0    0  0.34543172706E+01 -0.22932554306E+02 -0.38578679440E+03  0.38648322743E+03  0.00000000000E+00 0. -1.
        3    1    4    4  502    0  0.28412305106E+02  0.16108231689E+02  0.14939849250E+02  0.35915641511E+02  0.00000000000E+00 0. -1.
       -4    1    4    4    0  502 -0.19991710598E+02  0.45881444558E+02  0.14751106821E+03  0.15576999291E+03  0.00000000000E+00 0.  1.
<mgrwt>
<rscale>  0 0.13414331E+03</rscale>
<asrwt>0</asrwt>
<pdfrwt beam="1">  1        1 0.15483358E+00 0.14708907E+03</pdfrwt>
<pdfrwt beam="2">  1       -2 0.31208697E-01 0.14708907E+03</pdfrwt>
<totfact> 0.13751099E+02</totfact>
</mgrwt>
</event>
<event>
10   0  0.7688500E-08  0.4434050E+03  0.7546771E-02  0.1204985E+00
        1   -1    0    0  501    0  0.00000000000E+00  0.00000000000E+00  0.17685436530E+04  0.17685436530E+04  0.00000000000E+00 0. -1.
        2   -1    0    0  502    0  0.00000000000E+00  0.00000000000E+00 -0.31223525375E+03  0.31223525375E+03  0.00000000000E+00 0. -1.
       23    2    1    2    0    0 -0.15056916540E+03 -0.15076688457E+03  0.59271197783E+02  0.23888684902E+03  0.90289117274E+02 0.  0.
       23    2    1    2    0    0 -0.27705192084E+03 -0.27563564091E+03  0.94978350096E+03  0.10310681862E+04  0.90995233608E+02 0.  0.
      -11    1    4    4    0    0 -0.15521868136E+01 -0.33516646630E+01  0.66284488563E+02  0.66387320807E+02  0.00000000000E+00 0.  1.
       11    1    4    4    0    0 -0.27549973402E+03 -0.27228397625E+03  0.88349901240E+03  0.96468086540E+03  0.00000000000E+00 0. -1.
      -13    1    3    3    0    0  0.31731191830E+01 -0.24737803022E+02 -0.12030411867E+02  0.27690402551E+02  0.00000000000E+00 0.  1.
       13    1    3    3    0    0 -0.15374228458E+03 -0.12602908155E+03  0.71301609651E+02  0.21119644647E+03  0.00000000000E+00 0. -1.
        2    1    1    2  501    0  0.43844693785E+03  0.37930222328E+03  0.47981653593E+03  0.75254887020E+03  0.00000000000E+00 0. -1.
        1    1    1    2  502    0 -0.10825851621E+02  0.47100302202E+02 -0.32562835406E+02  0.58275001334E+02  0.00000000000E+00 0. -1.
<mgrwt>
<rscale>  0 0.14638671E+03</rscale>
<asrwt>0</asrwt>
<pdfrwt beam="1">  1        2 0.48036193E-01 0.48328434E+02</pdfrwt>
<pdfrwt beam="2">  1        1 0.27208364E+00 0.44340502E+03</pdfrwt>
<totfact> 0.64641806E+01</totfact>
</mgrwt>
</event>
<event>
10   0  0.7688500E-08  0.9399649E+02  0.7546771E-02  0.1312027E+00
        1   -1    0    0  501    0  0.00000000000E+00  0.00000000000E+00  0.16872409554E+04  0.16872409554E+04  0.00000000000E+00 0. -1.
        2   -1    0    0  502    0  0.00000000000E+00  0.00000000000E+00 -0.65843996488E+03  0.65843996488E+03  0.00000000000E+00 0. -1.
       23    2    1    2    0    0 -0.27674351295E+02  0.14974581417E+02 -0.61366445763E+02  0.11497619260E+03  0.91997697745E+02 0.  0.
       23    2    1    2    0    0  0.92686533821E+02  0.77462368801E+02  0.27661874944E+03  0.31502802774E+03  0.90185994418E+02 0.  0.
      -11    1    3    3    0    0 -0.60750583604E+02  0.12435211880E+02 -0.28387521261E+02  0.68199114848E+02  0.00000000000E+00 0.  1.
       11    1    3    3    0    0  0.33076232309E+02  0.25393695368E+01 -0.32978924502E+02  0.46777077749E+02  0.00000000000E+00 0. -1.
      -13    1    4    4    0    0  0.10187955824E+03  0.44696112904E+02  0.24267970419E+03  0.26696558902E+03  0.00000000000E+00 0.  1.
       13    1    4    4    0    0 -0.91930244150E+01  0.32766255897E+02  0.33939045250E+02  0.48062438722E+02  0.00000000000E+00 0. -1.
        2    1    1    2  501    0  0.27387258279E+02 -0.74380761480E+02  0.13594286973E+04  0.13617374720E+04  0.00000000000E+00 0. -1.
        1    1    1    2  502    0 -0.92399440805E+02 -0.18056188738E+02 -0.54588001038E+03  0.55393922802E+03  0.00000000000E+00 0. -1.
<mgrwt>
<rscale>  0 0.86315735E+02</rscale>
<asrwt>0</asrwt>
<pdfrwt beam="1">  1        2 0.10129846E+00 0.93996490E+02</pdfrwt>
<pdfrwt beam="2">  1        1 0.25957553E+00 0.79262599E+02</pdfrwt>
<totfact> 0.39059326E+01</totfact>
</mgrwt>
</event>
<event>
10   0  0.7688500E-08  0.6659089E+02  0.7546771E-02  0.1486964E+00
        1   -1    0    0  501    0  0.00000000000E+00  0.00000000000E+00  0.20119504337E+03  0.20119504337E+03  0.00000000000E+00 0. -1.
        2   -1    0    0  502    0  0.00000000000E+00  0.00000000000E+00 -0.45216616713E+03  0.45216616713E+03  0.00000000000E+00 0. -1.
       23    2    1    2    0    0 -0.39862102434E+02  0.42993077186E+02  0.13140526305E+03  0.17082273338E+03  0.92063408507E+02 0.  0.
       23    2    1    2    0    0 -0.11518881823E+02  0.25270881266E+02 -0.10502231661E+03  0.13675992240E+03  0.83080005473E+02 0.  0.
      -11    1    4    4    0    0  0.85053143921E+01  0.34801994225E+01  0.12530512847E+02  0.15539173502E+02  0.00000000000E+00 0. -1.
       11    1    4    4    0    0 -0.20024196215E+02  0.21790681844E+02 -0.11755282946E+03  0.12122074889E+03  0.00000000000E+00 0.  1.
      -13    1    3    3    0    0  0.14415959555E+02  0.12441796793E+01 -0.72468642312E+01  0.16182858652E+02  0.00000000000E+00 0.  1.
       13    1    3    3    0    0 -0.54278061989E+02  0.41748897507E+02  0.13865212728E+03  0.15463987473E+03  0.00000000000E+00 0. -1.
        2    1    1    2  501    0  0.10704247460E+02  0.25675945054E+02 -0.23225674143E+03  0.23391671382E+03  0.00000000000E+00 0. -1.
        1    1    1    2  502    0  0.40676736797E+02 -0.93939903507E+02 -0.45097328772E+02  0.11186184090E+03  0.00000000000E+00 0. -1.
<mgrwt>
<rscale>  0 0.43039726E+02</rscale>
<asrwt>0</asrwt>
<pdfrwt beam="1">  1        2 0.69564026E-01 0.27817891E+02</pdfrwt>
<pdfrwt beam="2">  1        1 0.30953084E-01 0.66590886E+02</pdfrwt>
<totfact> 0.13743159E+03</totfact>
</mgrwt>
</event>
<event>
10   0  0.7688500E-08  0.7622604E+02  0.7546771E-02  0.1408795E+00
        1   -1    0    0  501    0  0.00000000000E+00  0.00000000000E+00  0.13709591397E+03  0.13709591397E+03  0.00000000000E+00 0. -1.
        2   -1    0    0  502    0  0.00000000000E+00  0.00000000000E+00 -0.89281420358E+03  0.89281420358E+03  0.00000000000E+00 0. -1.
       23    2    1    2    0    0  0.64131247429E+02  0.54629084229E+01 -0.40834192805E+02  0.11945938866E+03  0.91980726090E+02 0.  0.
       23    2    1    2    0    0 -0.89948616118E+02  0.18409867481E+02 -0.24996416644E+03  0.28123813167E+03  0.90460629227E+02 0.  0.
      -11    1    4    4    0    0 -0.80943203362E+02 -0.22219561800E+02 -0.19498871375E+03  0.21228779896E+03  0.00000000000E+00 0.  1.
       11    1    4    4    0    0 -0.90054127568E+01  0.40629429281E+02 -0.54975452681E+02  0.68950332705E+02  0.00000000000E+00 0. -1.
      -13    1    3    3    0    0  0.53442624274E+02  0.44563730700E+02 -0.36819668061E+02  0.78725651089E+02  0.00000000000E+00 0.  1.
       13    1    3    3    0    0  0.10688623155E+02 -0.39100822277E+02 -0.40145247436E+01  0.40733737572E+02  0.00000000000E+00 0. -1.
        2    1    1    2  501    0  0.58334143663E+02 -0.52494693689E+02  0.62310450125E+02  0.10020557558E+03  0.00000000000E+00 0. -1.
        1    1    1    2  502    0 -0.32516774973E+02  0.28621917785E+02 -0.52723038049E+03  0.52900702164E+03  0.00000000000E+00 0. -1.
<mgrwt>
<rscale>  0 0.57463489E+02</rscale>
<asrwt>0</asrwt>
<pdfrwt beam="1">  1        2 0.13735603E+00 0.43319220E+02</pdfrwt>
<pdfrwt beam="2">  1        1 0.21091679E-01 0.76226039E+02</pdfrwt>
<totfact> 0.10382909E+03</totfact>
</mgrwt>
</event>
<event>
11   0  0.7688500E-08  0.1770606E+03  0.7546771E-02  0.1186404E+00
       -1   -1    0    0    0  501  0.00000000000E+00  0.00000000000E+00  0.52613898069E+03  0.52613898069E+03  0.00000000000E+00 0.  1.
        2   -1    0    0  501    0  0.00000000000E+00  0.00000000000E+00 -0.56811791662E+03  0.56811791662E+03  0.00000000000E+00 0. -1.
       23    2    1    2    0    0 -0.91499019437E+02  0.14784722123E+03  0.41399823953E+03  0.45797234164E+03  0.90073592074E+02 0.  0.
       24    2    1    2    0    0  0.13054961999E+03 -0.78686305778E+02 -0.47845038005E+03  0.51010199294E+03  0.89747083735E+02 0.  0.
       23    2    1    2    0    0 -0.39050600554E+02 -0.69160915457E+02  0.22473204595E+02  0.12618256273E+03  0.95440099445E+02 0.  0.
      -11    1    3    3    0    0 -0.57989830831E+02  0.19109601695E+02  0.10333038417E+03  0.12002152161E+03  0.00000000000E+00 0. -1.
       11    1    3    3    0    0 -0.33509188606E+02  0.12873761954E+03  0.31066785535E+03  0.33795082003E+03  0.00000000000E+00 0.  1.
      -13    1    5    5    0    0 -0.39724221192E+02  0.68371136701E+01  0.29363895312E+02  0.49869812718E+02  0.00000000000E+00 0.  1.
       13    1    5    5    0    0  0.67362063805E+00 -0.75998029127E+02 -0.68906907165E+01  0.76312750013E+02  0.00000000000E+00 0. -1.
        2    1    4    4  502    0  0.13979478818E+03 -0.86680782682E+02 -0.45076419500E+03  0.47983799389E+03  0.00000000000E+00 0. -1.
       -1    1    4    4    0  502 -0.92451681937E+01  0.79944769042E+01 -0.27686185046E+02  0.30263999047E+02  0.00000000000E+00 0.  1.
<mgrwt>
<rscale>  0 0.16204747E+03</rscale>
<asrwt>0</asrwt>
<pdfrwt beam="1">  1        2 0.87402756E-01 0.17706060E+03</pdfrwt>
<pdfrwt beam="2">  1       -1 0.80944459E-01 0.17706060E+03</pdfrwt>
<totfact> 0.10087018E+02</totfact>
</mgrwt>
</event>
<event>
10   0  0.7688500E-08  0.1832156E+03  0.7546771E-02  0.1259140E+00
        1   -1    0    0  501    0  0.00000000000E+00  0.00000000000E+00  0.24497309836E+04  0.24497309836E+04  0.00000000000E+00 0. -1.
        2   -1    0    0  502    0  0.00000000000E+00  0.00000000000E+00 -0.16948055130E+04  0.16948055130E+04  0.00000000000E+00 0. -1.
       23    2    1    2    0    0 -0.14261407851E+01 -0.19343978625E+03 -0.86576404847E+01  0.21431274471E+03  0.91836882719E+02 0.  0.
       23    2    1    2    0    0 -0.67151705336E+00 -0.19619989172E+02  0.11351055539E+03  0.14826859278E+03  0.93346314927E+02 0.  0.
      -11    1    3    3    0    0  0.32666840058E+02 -0.24141086300E+02  0.57110359104E+01  0.41018659391E+02  0.00000000000E+00 0. -1.
       11    1    3    3    0    0 -0.34092980843E+02 -0.16929869995E+03 -0.14368676395E+02  0.17329408532E+03  0.00000000000E+00 0.  1.
      -13    1    4    4    0    0 -0.14886618471E+01 -0.54669426093E+02  0.43169489667E+02  0.69674723549E+02  0.00000000000E+00 0.  1.
       13    1    4    4    0    0  0.81714479376E+00  0.35049436922E+02  0.70341065722E+02  0.78593869233E+02  0.00000000000E+00 0. -1.
        2    1    1    2  501    0 -0.52874446440E+02  0.17479703187E+03  0.22115323815E+04  0.22190595269E+04  0.00000000000E+00 0. -1.
        1    1    1    2  502    0  0.54972104278E+02  0.38262743552E+02 -0.15614598257E+04  0.15628956322E+04  0.00000000000E+00 0. -1.
<mgrwt>
<rscale>  0 0.11077589E+03</rscale>
<asrwt>0</asrwt>
<pdfrwt beam="1">  1        2 0.26073931E+00 0.66977383E+02</pdfrwt>
<pdfrwt beam="2">  1        1 0.37688169E+00 0.18321556E+03</pdfrwt>
<totfact> 0.30349729E+00</totfact>
</mgrwt>
</event>
<event>
10   0  0.7688500E-08  0.1886975E+03  0.7546771E-02  0.1255544E+00
        1   -1    0    0  502    0  0.00000000000E+00  0.00000000000E+00  0.17803409146E+04  0.17803409146E+04  0.00000000000E+00 0. -1.
       -1   -1    0    0    0  501  0.00000000000E+00  0.00000000000E+00 -0.19178452527E+04  0.19178452527E+04  0.00000000000E+00 0.  1.
       23    2    1    2    0    0  0.18493589940E+03  0.22070781187E+03 -0.84596599605E+02  0.31364083601E+03  0.91108530030E+02 0.  0.
       23    2    1    2    0    0 -0.48146420830E+02 -0.38408848033E+02 -0.45343311891E+03  0.46595780531E+03  0.87873577148E+02 0.  0.
      -11    1    4    4    0    0 -0.50413538410E+02  0.11560275768E+02 -0.15607584549E+03  0.16442273072E+03  0.00000000000E+00 0.  1.
       11    1    4    4    0    0  0.22671175804E+01 -0.49969123801E+02 -0.29735727342E+03  0.30153507459E+03  0.00000000000E+00 0. -1.
      -13    1    3    3    0    0  0.40128750519E+02  0.58106133173E+01 -0.25355626756E+02  0.47822459719E+02  0.00000000000E+00 0.  1.
       13    1    3    3    0    0  0.14480714888E+03  0.21489719855E+03 -0.59240972849E+02  0.26581837629E+03  0.00000000000E+00 0. -1.
        2    1    1    2  502    0 -0.14605654744E+03 -0.11555820372E+03  0.16534230905E+04  0.16638792413E+04  0.00000000000E+00 0. -1.
       -2    1    1    2    0  501  0.92670688753E+01 -0.66740760118E+02 -0.12528977100E+04  0.12547082846E+04  0.00000000000E+00 0.  1.
<mgrwt>
<rscale>  0 0.11275921E+03</rscale>
<asrwt>0</asrwt>
<pdfrwt beam="1">  1        1 0.27389860E+00 0.18869751E+03</pdfrwt>
<pdfrwt beam="2">  1       -1 0.29505312E+00 0.67381063E+02</pdfrwt>
<totfact> 0.24381375E-01</totfact>
</mgrwt>
</event>
<event>
10   0  0.7688500E-08  0.6242785E+03  0.7546771E-02  0.1050012E+00
        1   -1    0    0  501    0  0.00000000000E+00  0.00000000000E+00  0.20576229076E+04  0.20576229076E+04  0.00000000000E+00 0. -1.
        2   -1    0    0  502    0  0.00000000000E+00  0.00000000000E+00 -0.69220647729E+03  0.69220647729E+03  0.00000000000E+00 0. -1.
       23    2    1    2    0    0 -0.82699691185E+02 -0.48662157624E+03 -0.26000782430E+03  0.56561669981E+03  0.93157850030E+02 0.  0.
       23    2    1    2    0    0  0.69017432745E+02 -0.11815402667E+03  0.49175273758E+02  0.17106942885E+03  0.90126366273E+02 0.  0.
      -11    1    3    3    0    0 -0.10457670490E+02 -0.32545497036E+03 -0.16396352908E+03  0.36457418926E+03  0.00000000000E+00 0. -1.
       11    1    3    3    0    0 -0.72242020696E+02 -0.16116660588E+03 -0.96044295223E+02  0.20104251056E+03  0.00000000000E+00 0.  1.
      -13    1    4    4    0    0  0.32545375969E+02  0.40646346770E+01  0.25033637336E+02  0.41260219949E+02  0.00000000000E+00 0. -1.
       13    1    4    4    0    0  0.36472056776E+02 -0.12221866135E+03  0.24141636422E+02  0.12980920890E+03  0.00000000000E+00 0.  1.
        2    1    1    2  501    0  0.36359745232E+03  0.54096873546E+03  0.15189211752E+04  0.16528677553E+04  0.00000000000E+00 0. -1.
        1    1    1    2  502    0 -0.34991519388E+03  0.63806867449E+02  0.57327805616E+02  0.36027550088E+03  0.00000000000E+00 0. -1.
<mgrwt>
<rscale>  0 0.38250521E+03</rscale>
<asrwt>0</asrwt>
<pdfrwt beam="1">  1        2 0.10649330E+00 0.23436692E+03</pdfrwt>
<pdfrwt beam="2">  1        1 0.31655737E+00 0.62427852E+03</pdfrwt>
<totfact> 0.16616503E+01</totfact>
</mgrwt>
</event>
<event>
10   0  0.7688500E-08  0.1504156E+03  0.7546771E-02  0.1348060E+00
       -4   -1    0    0    0  501  0.00000000000E+00  0.00000000000E+00  0.79473400678E+03  0.79473400678E+03  0.00000000000E+00 0.  1.
        2   -1    0    0  502    0  0.00000000000E+00  0.00000000000E+00 -0.10882579362E+03  0.10882579362E+03  0.00000000000E+00 0. -1.
       23    2    1    2    0    0 -0.76119714390E+01 -0.28950838931E+02 -0.90813888340E+01  0.86826965454E+02  0.80996031525E+02 0.  0.
       23    2    1    2    0    0 -0.18706392203E+02 -0.11147442697E+03  0.17564466089E+03  0.22777164459E+03  0.90842711328E+02 0.  0.
      -11    1    4    4    0    0 -0.42441975406E+02 -0.10773704950E+03  0.11802905242E+03  0.16534645544E+03  0.00000000000E+00 0.  1.
       11    1    4    4    0    0  0.23735583204E+02 -0.37373774661E+01  0.57615608475E+02  0.62425189149E+02  0.00000000000E+00 0. -1.
      -13    1    3    3    0    0 -0.37121228512E+02 -0.29237671515E+02  0.14087387774E+02  0.49308027097E+02  0.00000000000E+00 0.  1.
       13    1    3    3    0    0  0.29509257073E+02  0.28683258400E+00 -0.23168776608E+02  0.37518938357E+02  0.00000000000E+00 0. -1.
        1    1    1    2  502    0  0.20736495524E+02 -0.29520300124E+02 -0.61901145548E+01  0.36602839838E+02  0.00000000000E+00 0. -1.
       -3    1    1    2    0  501  0.55818681176E+01  0.16994556602E+03  0.52553505565E+03  0.55235835051E+03  0.00000000000E+00 0.  1.
<mgrwt>
<rscale>  0 0.73663657E+02</rscale>
<asrwt>0</asrwt>
<pdfrwt beam="1">  1        2 0.16742430E-01 0.36075620E+02</pdfrwt>
<pdfrwt beam="2">  1       -4 0.12226677E+00 0.15041555E+03</pdfrwt>
<totfact> 0.85702819E+01</totfact>
</mgrwt>
</event>
<event>
10   0  0.7688500E-08  0.2071030E+03  0.7546771E-02  0.1155179E+00
        3   -1    0    0  501    0  0.00000000000E+00  0.00000000000E+00  0.14368307623E+04  0.14368307623E+04  0.00000000000E+00 0. -1.
        2   -1    0    0  502    0  0.00000000000E+00  0.00000000000E+00 -0.14995796760E+04  0.14995796760E+04  0.00000000000E+00 0. -1.
       23    2    1    2    0    0  0.35651125752E+02 -0.12585544427E+03 -0.87288162482E+02  0.18146011025E+03  0.90542546260E+02 0.  0.
       23    2    1    2    0    0  0.18464357200E+03  0.21666207053E+02  0.22124785231E+02  0.21280706890E+03  0.10116654213E+03 0.  0.
      -11    1    4    4    0    0  0.52869361719E+02  0.17054979702E+02  0.53657108538E+02  0.77234234883E+02  0.00000000000E+00 0.  1.
       11    1    4    4    0    0  0.13177421028E+03  0.46112273512E+01 -0.31532323307E+02  0.13557283402E+03  0.00000000000E+00 0. -1.
      -13    1    3    3    0    0  0.51859971132E+02 -0.26420694279E+02 -0.28353528536E+02  0.64741271786E+02  0.00000000000E+00 0.  1.
       13    1    3    3    0    0 -0.16208845380E+02 -0.99434749996E+02 -0.58934633945E+02  0.11671883847E+03  0.00000000000E+00 0. -1.
        4    1    1    2  501    0 -0.64358721460E+02  0.19770908613E+03  0.12571870747E+04  0.12742645991E+04  0.00000000000E+00 0. -1.
        1    1    1    2  502    0 -0.15593597629E+03 -0.93519848907E+02 -0.12547726111E+04  0.12678786600E+04  0.00000000000E+00 0. -1.
<mgrwt>
<rscale>  0 0.19368565E+03</rscale>
<asrwt>0</asrwt>
<pdfrwt beam="1">  1        2 0.23070457E+00 0.18113759E+03</pdfrwt>
<pdfrwt beam="2">  1        3 0.22105089E+00 0.20710295E+03</pdfrwt>
<totfact> 0.10548038E+00</totfact>
</mgrwt>
</event>
<event>
11   0  0.7688500E-08  0.9552545E+02  0.7546771E-02  0.1292774E+00
        3   -1    0    0  501    0  0.00000000000E+00  0.00000000000E+00  0.38245163329E+03  0.38245163329E+03  0.00000000000E+00 0. -1.
       -3   -1    0    0    0  501  0.00000000000E+00  0.00000000000E+00 -0.99035086344E+02  0.99035086344E+02  0.00000000000E+00 0.  1.
       23    2    1    2    0    0  0.15862318631E+02  0.18211344292E+02 -0.42982104279E+02  0.10508404901E+03  0.92800484125E+02 0.  0.
       23    2    1    2    0    0 -0.23810539422E+01 -0.18112515547E+02  0.13090714682E+03  0.16089743174E+03  0.91747315024E+02 0.  0.
       23    2    1    2    0    0 -0.13481264689E+02 -0.98828744446E-01  0.19549150440E+03  0.21550523889E+03  0.89687376091E+02 0.  0.
      -11    1    3    3    0    0  0.13025590013E+02  0.31124000113E+02 -0.68492306731E+02  0.76351591074E+02  0.00000000000E+00 0.  1.
       11    1    3    3    0    0  0.28367286182E+01 -0.12912655822E+02  0.25510202452E+02  0.28732457931E+02  0.00000000000E+00 0. -1.
      -13    1    5    5    0    0 -0.28338993838E+02  0.38863727977E+02  0.11965342165E+03  0.12895902154E+03  0.00000000000E+00 0.  1.
       13    1    5    5    0    0  0.14857729149E+02 -0.38962556721E+02  0.75838082749E+02  0.86546217346E+02  0.00000000000E+00 0. -1.
        4    1    4    4  502    0  0.96223316806E+00 -0.54026182441E+02  0.56333591354E+02  0.78059130130E+02  0.00000000000E+00 0. -1.
       -4    1    4    4    0  502 -0.33432871102E+01  0.35913666894E+02  0.74573555466E+02  0.82838301608E+02  0.00000000000E+00 0.  1.
<mgrwt>
<rscale>  0 0.94294235E+02</rscale>
<asrwt>0</asrwt>
<pdfrwt beam="1">  1        3 0.58838713E-01 0.95525453E+02</pdfrwt>
<pdfrwt beam="2">  1       -3 0.15236167E-01 0.95525453E+02</pdfrwt>
<totfact> 0.23052760E+02</totfact>
</mgrwt>
</event>
<event>
11   0  0.7688500E-08  0.1403783E+03  0.7546771E-02  0.1232294E+00
        2   -1    0    0  501    0  0.00000000000E+00  0.00000000000E+00  0.24786063970E+03  0.24786063970E+03  0.00000000000E+00 0. -1.
       -2   -1    0    0    0  501  0.00000000000E+00  0.00000000000E+00 -0.16781824302E+03  0.16781824302E+03  0.00000000000E+00 0.  1.
       23    2    1    2    0    0  0.42239366291E+02  0.10235711426E+03 -0.29059580470E+02  0.14667124792E+03  0.91688891619E+02 0.  0.
       23    2    1    2    0    0 -0.22634468584E+02 -0.99109845445E+02  0.10976795327E+02  0.13351819950E+03  0.85857666691E+02 0.  0.
       23    2    1    2    0    0 -0.19604897707E+02 -0.32472688161E+01  0.98125181817E+02  0.13548943529E+03  0.91290410231E+02 0.  0.
      -11    1    3    3    0    0 -0.20952658929E+02 -0.59316151674E+00 -0.13363181974E+02  0.24858406813E+02  0.00000000000E+00 0. -1.
       11    1    3    3    0    0  0.63192025220E+02  0.10295027578E+03 -0.15696398496E+02  0.12181284111E+03  0.00000000000E+00 0.  1.
      -13    1    5    5    0    0  0.36800873882E+02  0.13536179499E+01  0.37745058667E+02  0.52733538226E+02  0.00000000000E+00 0.  1.
       13    1    5    5    0    0 -0.56405771589E+02 -0.46008867659E+01  0.60380123150E+02  0.82755897066E+02  0.00000000000E+00 0. -1.
        4    1    4    4  502    0  0.17745695518E+02 -0.72483803374E+02  0.31468426458E+02  0.80988106070E+02  0.00000000000E+00 0. -1.
       -4    1    4    4    0  502 -0.40380164102E+02 -0.26626042071E+02 -0.20491631131E+02  0.52530093429E+02  0.00000000000E+00 0.  1.
<mgrwt>
<rscale>  0 0.12679275E+03</rscale>
<asrwt>0</asrwt>
<pdfrwt beam="1">  1        2 0.38132406E-01 0.14037825E+03</pdfrwt>
<pdfrwt beam="2">  1       -2 0.25818191E-01 0.14037825E+03</pdfrwt>
<totfact> 0.17686946E+03</totfact>
</mgrwt>
</event>
<event>
11   0  0.7688500E-08  0.1713722E+03  0.7546771E-02  0.1188821E+00
       -3   -1    0    0    0  501  0.00000000000E+00  0.00000000000E+00  0.17025540059E+03  0.17025540059E+03  0.00000000000E+00 0.  1.
        4   -1    0    0  501    0  0.00000000000E+00  0.00000000000E+00 -0.10346951906E+04  0.10346951906E+04  0.00000000000E+00 0. -1.
       23    2    1    2    0    0 -0.11792437586E+03  0.34560382242E+02 -0.23787266335E+01  0.15275725683E+03  0.90711315357E+02 0.  0.
       24    2    1    2    0    0 -0.19289430021E+02  0.98956381190E+02 -0.82624796648E+03  0.83631513284E+03  0.81073126357E+02 0.  0.
       23    2    1    2    0    0  0.13721380588E+03 -0.13351676343E+03 -0.35813096885E+02  0.21587820150E+03  0.93093852299E+02 0.  0.
      -11    1    5    5    0    0 -0.11934783691E+02 -0.85802778538E+01 -0.13647036814E+02  0.20057463538E+02  0.00000000000E+00 0. -1.
       11    1    5    5    0    0  0.14914858957E+03 -0.12493648558E+03 -0.22166060071E+02  0.19582073797E+03  0.00000000000E+00 0.  1.
      -13    1    3    3    0    0 -0.72430126881E+02 -0.19895576889E+02  0.21090658600E+02  0.78017774512E+02  0.00000000000E+00 0.  1.
       13    1    3    3    0    0 -0.45494248974E+02  0.54455959131E+02 -0.23469385233E+02  0.74739482322E+02  0.00000000000E+00 0. -1.
        2    1    4    4  502    0 -0.12339615887E+01  0.57951492300E+02 -0.69919782205E+03  0.70159638859E+03  0.00000000000E+00 0. -1.
       -1    1    4    4    0  502 -0.18055468432E+02  0.41004888891E+02 -0.12705014443E+03  0.13471874425E+03  0.00000000000E+00 0.  1.
<mgrwt>
<rscale>  0 0.15988976E+03</rscale>
<asrwt>0</asrwt>
<pdfrwt beam="1">  1        4 0.15918388E+00 0.17137218E+03</pdfrwt>
<pdfrwt beam="2">  1       -3 0.26193139E-01 0.17137218E+03</pdfrwt>
<totfact> 0.77310571E+00</totfact>
</mgrwt>
</event>
<event>
10   0  0.7688500E-08  0.5455515E+03  0.7546771E-02  0.1121842E+00
        2   -1    0    0  502    0  0.00000000000E+00  0.00000000000E+00  0.15210104265E+04  0.15210104265E+04  0.00000000000E+00 0. -1.
        1   -1    0    0  501    0  0.00000000000E+00  0.00000000000E+00 -0.69153597439E+03  0.69153597439E+03  0.00000000000E+00 0. -1.
       23    2    1    2    0    0  0.37376344604E+03 -0.48803174660E+03  0.43646093033E+03  0.75926583831E+03  0.90068697277E+02 0.  0.
       23    2    1    2    0    0  0.54214469061E+02  0.27745979805E+02  0.29863157676E+02  0.11378040133E+03  0.91351647436E+02 0.  0.
      -11    1    3    3    0    0  0.20997439439E+03 -0.31636761140E+03  0.22449676874E+03  0.44110827585E+03  0.00000000000E+00 0.  1.
       11    1    3    3    0    0  0.16378905164E+03 -0.17166413520E+03  0.21196416159E+03  0.31815756246E+03  0.00000000000E+00 0. -1.
      -13    1    4    4    0    0 -0.81025032725E+01  0.43527014754E+02  0.38822960145E+01  0.44444614916E+02  0.00000000000E+00 0.  1.
       13    1    4    4    0    0  0.62316972333E+02 -0.15781034949E+02  0.25980861661E+02  0.69335786413E+02  0.00000000000E+00 0. -1.
        2    1    1    2  501    0 -0.34223838330E+03  0.40336541322E+03 -0.34001672902E+03  0.62884190668E+03  0.00000000000E+00 0. -1.
        1    1    1    2  502    0 -0.85739531798E+02  0.56920353581E+02  0.70316709312E+03  0.71065825459E+03  0.00000000000E+00 0. -1.
<mgrwt>
<rscale>  0 0.23694858E+03</rscale>
<asrwt>0</asrwt>
<pdfrwt beam="1">  1        2 0.23400160E+00 0.10291353E+03</pdfrwt>
<pdfrwt beam="2">  1        1 0.10639015E+00 0.54555149E+03</pdfrwt>
<totfact> 0.55195606E+01</totfact>
</mgrwt>
</event>
<event>
10   0  0.7688500E-08  0.1765889E+03  0.7546771E-02  0.1285251E+00
        1   -1    0    0  501    0  0.00000000000E+00  0.00000000000E+00  0.19166424267E+03  0.19166424267E+03  0.00000000000E+00 0. -1.
        2   -1    0    0  502    0  0.00000000000E+00  0.00000000000E+00 -0.75089877440E+03  0.75089877440E+03  0.00000000000E+00 0. -1.
       23    2    1    2    0    0  0.10233808475E+03 -0.16967134847E+03 -0.40490336406E+03  0.46010301639E+03  0.92122751708E+02 0.  0.
       23    2    1    2    0    0 -0.12456758513E+03 -0.63016200914E+02  0.43486851568E+02  0.17240321213E+03  0.91343507980E+02 0.  0.
      -11    1    3    3    0    0  0.84764378758E+02 -0.17888893769E+03 -0.35616877028E+03  0.40748306082E+03  0.00000000000E+00 0. -1.
       11    1    3    3    0    0  0.17573705994E+02  0.92175892155E+01 -0.48734593781E+02  0.52619955571E+02  0.00000000000E+00 0.  1.
      -13    1    4    4    0    0 -0.59407617970E+02 -0.49261138940E+02  0.66571189018E+02  0.10191981206E+03  0.00000000000E+00 0. -1.
       13    1    4    4    0    0 -0.65159967160E+02 -0.13755061974E+02 -0.23084337449E+02  0.70483400072E+02  0.00000000000E+00 0.  1.
        2    1    1    2  501    0 -0.44507813708E+01  0.53848201742E+02 -0.70899273876E+02  0.89141153918E+02  0.00000000000E+00 0. -1.
        1    1    1    2  502    0  0.26680281749E+02  0.17883934765E+03 -0.12691874537E+03  0.22091563464E+03  0.00000000000E+00 0. -1.
<mgrwt>
<rscale>  0 0.97680193E+02</rscale>
<asrwt>0</asrwt>
<pdfrwt beam="1">  1        2 0.11552289E+00 0.54031827E+02</pdfrwt>
<pdfrwt beam="2">  1        1 0.29486807E-01 0.17658889E+03</pdfrwt>
<totfact> 0.84966798E+02</totfact>
</mgrwt>
</event>
<event>
10   0  0.7688500E-08  0.1237631E+03  0.7546771E-02  0.1254582E+00
        2   -1    0    0  502    0  0.00000000000E+00  0.00000000000E+00  0.19657691197E+04  0.19657691197E+04  0.00000000000E+00 0. -1.
       -2   -1    0    0    0  501  0.00000000000E+00  0.00000000000E+00 -0.79400248822E+03  0.79400248822E+03  0.00000000000E+00 0.  1.
       23    2    1    2    0    0  0.24899176343E+02  0.48312781721E+02 -0.25452994743E+03  0.27565893534E+03  0.90819935228E+02 0.  0.
       23    2    1    2    0    0 -0.12500538144E+03 -0.11444660587E+03 -0.24196739458E+03  0.30971932187E+03  0.93024014727E+02 0.  0.
      -11    1    4    4    0    0  0.10917203494E+02  0.52337033393E+01 -0.17985521991E+02  0.21680774526E+02  0.00000000000E+00 0. -1.
       11    1    4    4    0    0 -0.13592258493E+03 -0.11968030921E+03 -0.22398187259E+03  0.28803854734E+03  0.00000000000E+00 0.  1.
      -13    1    3    3    0    0  0.44503362739E+02  0.37170612711E+02 -0.75411769322E+02  0.95126960934E+02  0.00000000000E+00 0. -1.
       13    1    3    3    0    0 -0.19604186396E+02  0.11142169010E+02 -0.17911817811E+03  0.18053197441E+03  0.00000000000E+00 0.  1.
        1    1    1    2  502    0  0.11861884002E+03 -0.35918419197E+02  0.19086065846E+04  0.19126263767E+04  0.00000000000E+00 0. -1.
       -1    1    1    2    0  501 -0.18512634923E+02  0.10205224335E+03 -0.24034261105E+03  0.26176697407E+03  0.00000000000E+00 0.  1.
<mgrwt>
<rscale>  0 0.11329800E+03</rscale>
<asrwt>0</asrwt>
<pdfrwt beam="1">  1        2 0.30242602E+00 0.12376313E+03</pdfrwt>
<pdfrwt beam="2">  1       -2 0.12215423E+00 0.10371778E+03</pdfrwt>
<totfact> 0.47077860E+00</totfact>
</mgrwt>
</event>
<event>
11   0  0.7688500E-08  0.2202341E+03  0.7546771E-02  0.1133709E+00
       -1   -1    0    0    0  501  0.00000000000E+00  0.00000000000E+00  0.10834998695E+03  0.10834998695E+03  0.00000000000E+00 0.  1.
        1   -1    0    0  501    0  0.00000000000E+00  0.00000000000E+00 -0.11191293885E+03  0.11191293885E+03  0.00000000000E+00 0. -1.
       23    2    1    2    0    0 -0.59802958923E-01 -0.15590949770E+02 -0.14643505025E+02  0.93834844049E+02  0.91364459321E+02 0.  0.
       25    2    1    2    0    0  0.59802958923E-01  0.15590949770E+02  0.11080553127E+02  0.12642808175E+03  0.12497279667E+03 0.  0.
       23    2    4    4    0    0  0.37540828790E+01  0.12285153113E+02  0.25010273813E+02  0.96522154164E+02  0.92336310967E+02 0.  0.
      -11    1    3    3    0    0  0.20370280763E+02  0.25361004044E+02 -0.31290907397E+02  0.45135903117E+02  0.00000000000E+00 0. -1.
       11    1    3    3    0    0 -0.20430083722E+02 -0.40951953815E+02  0.16647402372E+02  0.48698940931E+02  0.00000000000E+00 0.  1.
      -13    1    5    5    0    0  0.40260236681E+02 -0.89659852438E+01  0.33859324307E+02  0.53364120827E+02  0.00000000000E+00 0.  1.
       13    1    5    5    0    0 -0.36506153802E+02  0.21251138357E+02 -0.88490504947E+01  0.43158033337E+02  0.00000000000E+00 0. -1.
        1    1    4    4  502    0  0.98981727822E+01  0.72638589593E+01 -0.71708269422E+01  0.14218235841E+02  0.00000000000E+00 0. -1.
       -1    1    4    4    0  502 -0.13592452702E+02 -0.39580623017E+01 -0.67588937431E+01  0.15687691745E+02  0.00000000000E+00 0.  1.
<mgrwt>
<rscale>  0 0.22023411E+03</rscale>
<asrwt>0</asrwt>
<pdfrwt beam="1">  1        1 0.17217375E-01 0.22023411E+03</pdfrwt>
<pdfrwt beam="2">  1       -1 0.16669229E-01 0.22023411E+03</pdfrwt>
<totfact> 0.82323564E+03</totfact>
</mgrwt>
</event>
<event>
11   0  0.7688500E-08  0.1032271E+03  0.7546771E-02  0.1285936E+00
       -2   -1    0    0    0  501  0.00000000000E+00  0.00000000000E+00  0.11872749734E+04  0.11872749734E+04  0.00000000000E+00 0.  1.
        1   -1    0    0  501    0  0.00000000000E+00  0.00000000000E+00 -0.40858456447E+03  0.40858456447E+03  0.00000000000E+00 0. -1.
       23    2    1    2    0    0 -0.21133749057E+02 -0.41795031441E+00  0.27987015138E+03  0.29465758148E+03  0.89716100317E+02 0.  0.
      -24    2    1    2    0    0  0.32064674697E+02 -0.15511792261E+02  0.89145516899E+03  0.89519144611E+03  0.73529910965E+02 0.  0.
       23    2    1    2    0    0 -0.10930925640E+02  0.15929742575E+02 -0.39263491145E+03  0.40601051027E+03  0.10153383141E+03 0.  0.
      -11    1    3    3    0    0  0.10238263056E+02  0.31154532804E+02  0.20460923649E+03  0.20722057476E+03  0.00000000000E+00 0.  1.
       11    1    3    3    0    0 -0.31372012113E+02 -0.31572483118E+02  0.75260914890E+02  0.87437006721E+02  0.00000000000E+00 0. -1.
      -13    1    5    5    0    0 -0.39240134224E+02 -0.27549264830E+02 -0.24163770869E+03  0.24634839635E+03  0.00000000000E+00 0.  1.
       13    1    5    5    0    0  0.28309208584E+02  0.43479007405E+02 -0.15099720277E+03  0.15966211391E+03  0.00000000000E+00 0. -1.
        3    1    4    4  502    0  0.16495095052E+02 -0.25696635807E+02  0.13111662033E+03  0.13462530735E+03  0.00000000000E+00 0. -1.
       -4    1    4    4    0  502  0.15569579645E+02  0.10184843546E+02  0.76033854866E+03  0.76056613875E+03  0.00000000000E+00 0.  1.
<mgrwt>
<rscale>  0 0.97365450E+02</rscale>
<asrwt>0</asrwt>
<pdfrwt beam="1">  1        1 0.62859164E-01 0.10322706E+03</pdfrwt>
<pdfrwt beam="2">  1       -2 0.18265769E+00 0.10322706E+03</pdfrwt>
<totfact> 0.10540613E+01</totfact>
</mgrwt>
</event>
<event>
11   0  0.7688500E-08  0.1511361E+03  0.7546771E-02  0.1220436E+00
       -1   -1    0    0    0  501  0.00000000000E+00  0.00000000000E+00  0.43813292333E+02  0.43813292333E+02  0.00000000000E+00 0.  1.
        2   -1    0    0  501    0  0.00000000000E+00  0.00000000000E+00 -0.12664385760E+04  0.12664385760E+04  0.00000000000E+00 0. -1.
       23    2    1    2    0    0  0.24284552870E+01  0.25798892731E+02 -0.67419171449E+02  0.11552332833E+03  0.90159938159E+02 0.  0.
       24    2    1    2    0    0  0.11959841476E+03 -0.42808943189E+02 -0.63349051823E+03  0.65100993261E+03  0.79795421171E+02 0.  0.
       23    2    1    2    0    0 -0.12202687005E+03  0.17010050458E+02 -0.52171559402E+03  0.54371860742E+03  0.90900298027E+02 0.  0.
      -11    1    3    3    0    0  0.33311015057E+02  0.45277705258E+02 -0.32136679971E+02  0.64749212482E+02  0.00000000000E+00 0. -1.
       11    1    3    3    0    0 -0.30882559770E+02 -0.19478812527E+02 -0.35282491478E+02  0.50774115850E+02  0.00000000000E+00 0.  1.
      -13    1    5    5    0    0 -0.87732710230E+02  0.37052542217E+02 -0.46388688767E+03  0.47356199582E+03  0.00000000000E+00 0.  1.
       13    1    5    5    0    0 -0.34294159821E+02 -0.20042491759E+02 -0.57828706348E+02  0.70156611603E+02  0.00000000000E+00 0. -1.
        4    1    4    4  502    0  0.11901916621E+03 -0.58522378103E+02 -0.59110952485E+03  0.60580599290E+03  0.00000000000E+00 0. -1.
       -3    1    4    4    0  502  0.57924855787E+00  0.15713434914E+02 -0.42380993382E+02  0.45203939714E+02  0.00000000000E+00 0.  1.
<mgrwt>
<rscale>  0 0.13484665E+03</rscale>
<asrwt>0</asrwt>
<pdfrwt beam="1">  1        2 0.19483670E+00 0.15113610E+03</pdfrwt>
<pdfrwt beam="2">  1       -1 0.67405065E-02 0.15113610E+03</pdfrwt>
<totfact> 0.23266483E+03</totfact>
</mgrwt>
</event>
<event>
10   0  0.7688500E-08  0.1265401E+03  0.7546771E-02  0.1347130E+00
        1   -1    0    0  501    0  0.00000000000E+00  0.00000000000E+00  0.30297844261E+04  0.30297844261E+04  0.00000000000E+00 0. -1.
        2   -1    0    0  502    0  0.00000000000E+00  0.00000000000E+00 -0.67656224189E+03  0.67656224189E+03  0.00000000000E+00 0. -1.
       23    2    1    2    0    0  0.25566137281E+02  0.17053593425E+03  0.55322150658E+03  0.58657184268E+03  0.90974496637E+02 0.  0.
       23    2    1    2    0    0  0.36620473376E+01 -0.87011566598E+02  0.34731358413E+03  0.36971399066E+03  0.92072177443E+02 0.  0.
      -11    1    3    3    0    0 -0.27037626096E+02  0.94920012686E+02  0.34596713151E+03  0.35976950694E+03  0.00000000000E+00 0. -1.
       11    1    3    3    0    0  0.52603763377E+02  0.75615921568E+02  0.20725437506E+03  0.22680233574E+03  0.00000000000E+00 0.  1.
      -13    1    4    4    0    0  0.83273113511E+01 -0.88556736293E+02  0.35191485438E+03  0.36298168603E+03  0.00000000000E+00 0.  1.
       13    1    4    4    0    0 -0.46652640134E+01  0.15451696950E+01 -0.46012702556E+01  0.67323046326E+01  0.00000000000E+00 0. -1.
        2    1    1    2  501    0 -0.12432469039E+02  0.41398607372E+02  0.20950258451E+04  0.20954717136E+04  0.00000000000E+00 0. -1.
        1    1    1    2  502    0 -0.16795715579E+02 -0.12492297503E+03 -0.64233875152E+03  0.65458912110E+03  0.00000000000E+00 0. -1.
<mgrwt>
<rscale>  0 0.73957504E+02</rscale>
<asrwt>0</asrwt>
<pdfrwt beam="1">  1        2 0.10408650E+00 0.12654013E+03</pdfrwt>
<pdfrwt beam="2">  1        1 0.46612068E+00 0.43225120E+02</pdfrwt>
<totfact> 0.58171939E+00</totfact>
</mgrwt>
</event>
<event>
10   0  0.7688500E-08  0.2358521E+03  0.7546771E-02  0.1231051E+00
        2   -1    0    0  502    0  0.00000000000E+00  0.00000000000E+00  0.21574281081E+04  0.21574281081E+04  0.00000000000E+00 0. -1.
       -2   -1    0    0    0  501  0.00000000000E+00  0.00000000000E+00 -0.31792139045E+03  0.31792139045E+03  0.00000000000E+00 0.  1.
       23    2    1    2    0    0  0.63711302554E+02  0.17172640258E+02  0.15596910189E+03  0.19028385758E+03  0.86761489531E+02 0.  0.
       23    2    1    2    0    0  0.81520071004E+02  0.83257994837E+02  0.13721139388E+03  0.20136943776E+03  0.90251139470E+02 0.  0.
      -11    1    3    3    0    0  0.42578028309E+02 -0.33422803651E+02  0.74848309474E+02  0.92370134403E+02  0.00000000000E+00 0. -1.
       11    1    3    3    0    0  0.21133274245E+02  0.50595443909E+02  0.81120792416E+02  0.97913723180E+02  0.00000000000E+00 0.  1.
      -13    1    4    4    0    0  0.17126756298E+02 -0.12157156766E+02 -0.15704070361E+01  0.21061538885E+02  0.00000000000E+00 0.  1.
       13    1    4    4    0    0  0.64393314706E+02  0.95415151603E+02  0.13878180091E+03  0.18030789888E+03  0.00000000000E+00 0. -1.
        1    1    1    2  502    0  0.57928401746E+02  0.37562426465E+02  0.17580703052E+04  0.17594254272E+04  0.00000000000E+00 0. -1.
       -1    1    1    2    0  501 -0.20315977530E+03 -0.13799306156E+03 -0.21174408337E+03  0.32427077602E+03  0.00000000000E+00 0.  1.
<mgrwt>
<rscale>  0 0.12760652E+03</rscale>
<asrwt>0</asrwt>
<pdfrwt beam="1">  1        2 0.33191202E+00 0.69040826E+02</pdfrwt>
<pdfrwt beam="2">  1       -2 0.48910983E-01 0.23585212E+03</pdfrwt>
<totfact> 0.29197665E+01</totfact>
</mgrwt>
</event>
<event>
10   0  0.7688500E-08  0.1309631E+03  0.7546771E-02  0.1227740E+00
        2   -1    0    0  502    0  0.00000000000E+00  0.00000000000E+00  0.20762439633E+04  0.20762439633E+04  0.00000000000E+00 0. -1.
        1   -1    0    0  501    0  0.00000000000E+00  0.00000000000E+00 -0.11211825403E+04  0.11211825403E+04  0.00000000000E+00 0. -1.
       23    2    1    2    0    0  0.23205668202E+02 -0.12360572084E+03  0.35562770041E+03  0.38812708360E+03  0.91404017761E+02 0.  0.
       23    2    1    2    0    0 -0.73456340987E+02 -0.15170971297E+03 -0.27714850046E+02  0.19394338904E+03  0.91838195746E+02 0.  0.
      -11    1    3    3    0    0  0.16857992138E+02  0.11375274654E+02  0.47582930982E+02  0.51746730266E+02  0.00000000000E+00 0. -1.
       11    1    3    3    0    0  0.63476760636E+01 -0.13498099550E+03  0.30804476943E+03  0.33638035334E+03  0.00000000000E+00 0.  1.
      -13    1    4    4    0    0 -0.79235325902E+02 -0.74082714477E+02 -0.39034099655E+02  0.11528289722E+03  0.00000000000E+00 0.  1.
       13    1    4    4    0    0  0.57789849156E+01 -0.77626998492E+02  0.11319249609E+02  0.78660491819E+02  0.00000000000E+00 0. -1.
        2    1    1    2  501    0 -0.40805417016E+02  0.12202207356E+03 -0.98500511215E+03  0.99337280990E+03  0.00000000000E+00 0. -1.
        1    1    1    2  502    0  0.91056089801E+02  0.15329336025E+03  0.16121536848E+04  0.16219832210E+04  0.00000000000E+00 0. -1.
<mgrwt>
<rscale>  0 0.12980854E+03</rscale>
<asrwt>0</asrwt>
<pdfrwt beam="1">  1        2 0.31942215E+00 0.13096309E+03</pdfrwt>
<pdfrwt beam="2">  1        1 0.17248962E+00 0.12866417E+03</pdfrwt>
<totfact> 0.13838870E+01</totfact>
</mgrwt>
</event>
<event>
11   0  0.7688500E-08  0.1119209E+03  0.7546771E-02  0.1261656E+00
        1   -1    0    0  501    0  0.00000000000E+00  0.00000000000E+00  0.18144098685E+04  0.18144098685E+04  0.00000000000E+00 0. -1.
       -1   -1    0    0    0  501  0.00000000000E+00  0.00000000000E+00 -0.19713392340E+02  0.19713392340E+02  0.00000000000E+00 0.  1.
       23    2    1    2    0    0  0.48144617832E+02 -0.21699970982E+02  0.24905432448E+03  0.27153127194E+03  0.94405413682E+02 0.  0.
       23    2    1    2    0    0  0.37978431108E+02  0.70097452203E+01  0.64743733977E+03  0.65545893972E+03  0.94656299145E+02 0.  0.
       23    2    1    2    0    0 -0.86123048939E+02  0.14690225762E+02  0.89820481186E+03  0.90713304913E+03  0.92116787229E+02 0.  0.
      -11    1    3    3    0    0 -0.59475417362E+01  0.91146804836E+01 -0.34882727815E+01  0.11428853837E+02  0.00000000000E+00 0.  1.
       11    1    3    3    0    0  0.54092159568E+02 -0.30814651466E+02  0.25254259726E+03  0.26010241810E+03  0.00000000000E+00 0. -1.
      -13    1    5    5    0    0 -0.97006886128E+02  0.90846635166E+01  0.87883039613E+03  0.88421475458E+03  0.00000000000E+00 0.  1.
       13    1    5    5    0    0  0.10883837188E+02  0.56055622456E+01  0.19374415732E+02  0.22918294548E+02  0.00000000000E+00 0. -1.
        1    1    4    4  502    0  0.19561322043E+02  0.50697477640E+02  0.31390265375E+03  0.31857142934E+03  0.00000000000E+00 0. -1.
       -1    1    4    4    0  502  0.18417109065E+02 -0.43687732420E+02  0.33353468602E+03  0.33688751038E+03  0.00000000000E+00 0.  1.
<mgrwt>
<rscale>  0 0.10941572E+03</rscale>
<asrwt>0</asrwt>
<pdfrwt beam="1">  1        1 0.27913998E+00 0.11192090E+03</pdfrwt>
<pdfrwt beam="2">  1       -1 0.30328296E-02 0.11192090E+03</pdfrwt>
<totfact> 0.16615285E+03</totfact>
</mgrwt>
</event>
<event>
10   0  0.7688500E-08  0.1530439E+03  0.7546771E-02  0.1322112E+00
        2   -1    0    0  502    0  0.00000000000E+00  0.00000000000E+00  0.13108353260E+04  0.13108353260E+04  0.00000000000E+00 0. -1.
        1   -1    0    0  501    0  0.00000000000E+00  0.00000000000E+00 -0.20497547075E+03  0.20497547075E+03  0.00000000000E+00 0. -1.
       23    2    1    2    0    0  0.12164609027E+03  0.41136397725E+02 -0.15172017888E+03  0.22002023432E+03  0.94339367898E+02 0.  0.
       23    2    1    2    0    0 -0.15362802963E+02 -0.63072296423E+02  0.35754769545E+03  0.37425538346E+03  0.89513167937E+02 0.  0.
      -11    1    4    4    0    0  0.27765662151E+02 -0.57429432996E+02  0.25514019428E+03  0.26299351799E+03  0.00000000000E+00 0.  1.
       11    1    4    4    0    0 -0.43128465114E+02 -0.56428634269E+01  0.10240750117E+03  0.11126186547E+03  0.00000000000E+00 0. -1.
      -13    1    3    3    0    0  0.43661885796E+02 -0.79990974990E+01 -0.11043829519E+03  0.11902505147E+03  0.00000000000E+00 0.  1.
       13    1    3    3    0    0  0.77984204479E+02  0.49135495224E+02 -0.41281883689E+02  0.10099518286E+03  0.00000000000E+00 0. -1.
        2    1    1    2  501    0 -0.30189310710E+02 -0.32650972661E+02  0.52316074909E+02  0.68661868535E+02  0.00000000000E+00 0. -1.
        1    1    1    2  502    0 -0.76093976602E+02  0.54586871358E+02  0.84771626380E+03  0.85287331047E+03  0.00000000000E+00 0. -1.
<mgrwt>
<rscale>  0 0.82496604E+02</rscale>
<asrwt>0</asrwt>
<pdfrwt beam="1">  1        2 0.20166697E+00 0.44468871E+02</pdfrwt>
<pdfrwt beam="2">  1        1 0.31534688E-01 0.15304390E+03</pdfrwt>
<totfact> 0.37823027E+02</totfact>
</mgrwt>
</event>
<event>
10   0  0.7688500E-08  0.1309117E+03  0.7546771E-02  0.1280296E+00
        2   -1    0    0  502    0  0.00000000000E+00  0.00000000000E+00  0.17369992669E+04  0.17369992669E+04  0.00000000000E+00 0. -1.
        1   -1    0    0  501    0  0.00000000000E+00  0.00000000000E+00 -0.23465799935E+04  0.23465799935E+04  0.00000000000E+00 0. -1.
       23    2    1    2    0    0 -0.30721772180E+02  0.11617498925E+03  0.16771042201E+03  0.22553165591E+03  0.91089443697E+02 0.  0.
       23    2    1    2    0    0 -0.36947869565E+02 -0.20010511877E+02  0.39188806536E+03  0.40431904299E+03  0.90177974601E+02 0.  0.
      -11    1    3    3    0    0 -0.61972224897E+02  0.59003275570E+02  0.98529115290E+02  0.13049877297E+03  0.00000000000E+00 0. -1.
       11    1    3    3    0    0  0.31250452717E+02  0.57171713684E+02  0.69181306724E+02  0.95032882944E+02  0.00000000000E+00 0.  1.
      -13    1    4    4    0    0 -0.49075841603E+02 -0.47141208725E+02  0.30466716273E+03  0.31217432924E+03  0.00000000000E+00 0. -1.
       13    1    4    4    0    0  0.12127972038E+02  0.27130696848E+02  0.87220902625E+02  0.92144713749E+02  0.00000000000E+00 0.  1.
        2    1    1    2  501    0 -0.47905652085E+02  0.59498728890E+02 -0.23025892494E+04  0.23038559638E+04  0.00000000000E+00 0. -1.
        1    1    1    2  502    0  0.11557529383E+03 -0.15566320627E+03  0.11334100355E+04  0.11498725977E+04  0.00000000000E+00 0. -1.
<mgrwt>
<rscale>  0 0.10000008E+03</rscale>
<asrwt>0</asrwt>
<pdfrwt beam="1">  1        2 0.26723066E+00 0.13091168E+03</pdfrwt>
<pdfrwt beam="2">  1        1 0.36101231E+00 0.76387501E+02</pdfrwt>
<totfact> 0.35747586E+00</totfact>
</mgrwt>
</event>
<event>
10   0  0.7688500E-08  0.5742466E+02  0.7546771E-02  0.1459271E+00
        2   -1    0    0  502    0  0.00000000000E+00  0.00000000000E+00  0.15343075902E+04  0.15343075902E+04  0.00000000000E+00 0. -1.
        1   -1    0    0  501    0  0.00000000000E+00  0.00000000000E+00 -0.12648587133E+03  0.12648587133E+03  0.00000000000E+00 0. -1.
       23    2    1    2    0    0  0.10885936384E+03  0.89104830786E+02  0.16150459148E+03  0.23670978810E+03  0.10078570705E+03 0.  0.
       23    2    1    2    0    0 -0.20303885753E+03 -0.80618798583E+02  0.36458469672E+03  0.43462502989E+03  0.90844632076E+02 0.  0.
      -11    1    4    4    0    0 -0.39203036325E+02 -0.59054944545E+02  0.97268298969E+02  0.12035566674E+03  0.00000000000E+00 0.  1.
       11    1    4    4    0    0 -0.16383582120E+03 -0.21563854037E+02  0.26731639775E+03  0.31426936315E+03  0.00000000000E+00 0. -1.
      -13    1    3    3    0    0  0.78299547306E+02  0.69465239106E+01  0.10947621045E+03  0.13477430748E+03  0.00000000000E+00 0.  1.
       13    1    3    3    0    0  0.30559816537E+02  0.82158306876E+02  0.52028381032E+02  0.10193548062E+03  0.00000000000E+00 0. -1.
        2    1    1    2  501    0  0.37318118584E+02 -0.12330209096E+02 -0.45700595196E+02  0.60276201210E+02  0.00000000000E+00 0. -1.
        1    1    1    2  502    0  0.56861375100E+02  0.38441768924E+01  0.92743302591E+03  0.92918244238E+03  0.00000000000E+00 0. -1.
<mgrwt>
<rscale>  0 0.47507107E+02</rscale>
<asrwt>0</asrwt>
<pdfrwt beam="1">  1        2 0.23604732E+00 0.57424663E+02</pdfrwt>
<pdfrwt beam="2">  1        1 0.19459365E-01 0.39302367E+02</pdfrwt>
<totfact> 0.49907604E+02</totfact>
</mgrwt>
</event>
<event>
10   0  0.7688500E-08  0.4200767E+03  0.7546771E-02  0.1163660E+00
        1   -1    0    0  501    0  0.00000000000E+00  0.00000000000E+00  0.56715394435E+03  0.56715394435E+03  0.00000000000E+00 0. -1.
        2   -1    0    0  502    0  0.00000000000E+00  0.00000000000E+00 -0.18141949912E+04  0.18141949912E+04  0.00000000000E+00 0. -1.
       23    2    1    2    0    0  0.18992647761E+02  0.27593300011E+03 -0.27332286807E+03  0.40047792800E+03  0.95798952938E+02 0.  0.
       23    2    1    2    0    0  0.93450866642E+02  0.12990992481E+03 -0.11740337808E+03  0.21641449323E+03  0.86267181797E+02 0.  0.
      -11    1    4    4    0    0  0.51967932678E+02  0.12491233094E+03 -0.10913272587E+03  0.17382090870E+03  0.00000000000E+00 0. -1.
       11    1    4    4    0    0  0.41482933964E+02  0.49975938695E+01 -0.82706522151E+01  0.42593584526E+02  0.00000000000E+00 0.  1.
      -13    1    3    3    0    0  0.39986127688E+02  0.13540521017E+03 -0.85828265267E+02  0.16522697258E+03  0.00000000000E+00 0.  1.
       13    1    3    3    0    0 -0.20993479927E+02  0.14052778994E+03 -0.18749460281E+03  0.23525095542E+03  0.00000000000E+00 0. -1.
        2    1    1    2  501    0 -0.32767302334E+02 -0.41986116881E+03  0.35478191462E+03  0.55066078861E+03  0.00000000000E+00 0. -1.
        1    1    1    2  502    0 -0.79676212070E+02  0.14018243893E+02 -0.12110967153E+04  0.12137957257E+04  0.00000000000E+00 0. -1.
<mgrwt>
<rscale>  0 0.18434805E+03</rscale>
<asrwt>0</asrwt>
<pdfrwt beam="1">  1        2 0.27910692E+00 0.80900000E+02</pdfrwt>
<pdfrwt beam="2">  1        1 0.87254453E-01 0.42007669E+03</pdfrwt>
<totfact> 0.53875022E+01</totfact>
</mgrwt>
</event>
<event>
10   0  0.7688500E-08  0.3862262E+03  0.7546771E-02  0.1113109E+00
        2   -1    0    0  502    0  0.00000000000E+00  0.00000000000E+00  0.69781545496E+03  0.69781545496E+03  0.00000000000E+00 0. -1.
        1   -1    0    0  501    0  0.00000000000E+00  0.00000000000E+00 -0.14077694277E+04  0.14077694277E+04  0.00000000000E+00 0. -1.
       23    2    1    2    0    0  0.23250997338E+03  0.20083596164E+03 -0.24874697772E+03  0.40575188276E+03  0.91452502628E+02 0.  0.
       23    2    1    2    0    0 -0.10683814461E+03  0.10876311779E+03  0.40347706820E+03  0.44111204313E+03  0.92424483200E+02 0.  0.
      -11    1    3    3    0    0  0.23193262237E+03  0.19761466498E+03 -0.25588702727E+03  0.39789755950E+03  0.00000000000E+00 0. -1.
       11    1    3    3    0    0  0.57735100959E+00  0.32212966560E+01  0.71400495501E+01  0.78543232625E+01  0.00000000000E+00 0.  1.
      -13    1    4    4    0    0 -0.46521187668E+02  0.82080457233E+02  0.32592642205E+03  0.33930731638E+03  0.00000000000E+00 0. -1.
       13    1    4    4    0    0 -0.60316956942E+02  0.26682660556E+02  0.77550646147E+02  0.10180472674E+03  0.00000000000E+00 0.  1.
        2    1    1    2  501    0 -0.32721089185E+03 -0.28501417294E+03 -0.94540044004E+03  0.10402317235E+04  0.00000000000E+00 0. -1.
        1    1    1    2  502    0  0.20153906309E+03 -0.24584906487E+02  0.80716376817E+02  0.21848923329E+03  0.00000000000E+00 0. -1.
<mgrwt>
<rscale>  0 0.25031047E+03</rscale>
<asrwt>0</asrwt>
<pdfrwt beam="1">  1        2 0.10735622E+00 0.16222445E+03</pdfrwt>
<pdfrwt beam="2">  1        1 0.21657991E+00 0.38622617E+03</pdfrwt>
<totfact> 0.47166388E+01</totfact>
</mgrwt>
</event>
<event>
10   0  0.7688500E-08  0.1530604E+03  0.7546771E-02  0.1200600E+00
        1   -1    0    0  501    0  0.00000000000E+00  0.00000000000E+00  0.18696165263E+04  0.18696165263E+04  0.00000000000E+00 0. -1.
        2   -1    0    0  502    0  0.00000000000E+00  0.00000000000E+00 -0.15223874390E+04  0.15223874390E+04  0.00000000000E+00 0. -1.
       23    2    1    2    0    0 -0.13506098736E+03  0.13798791621E+02  0.49231643942E+02  0.17038319080E+03  0.90414600503E+02 0.  0.
       23    2    1    2    0    0  0.18551046198E+03  0.20170067542E+03  0.10346483135E+04  0.10741923877E+04  0.91076116769E+02 0.  0.
      -11    1    4    4    0    0  0.73196124596E+02  0.57505787433E+02  0.51482643259E+03  0.52317381809E+03  0.00000000000E+00 0.  1.
       11    1    4    4    0    0  0.11231433739E+03  0.14419488799E+03  0.51982188096E+03  0.55101856959E+03  0.00000000000E+00 0. -1.
      -13    1    3    3    0    0 -0.47874079416E+02  0.46767296334E+02  0.47303628384E+01  0.67093098147E+02  0.00000000000E+00 0.  1.
       13    1    3    3    0    0 -0.87186907947E+02 -0.32968504714E+02  0.44501281103E+02  0.10329009265E+03  0.00000000000E+00 0. -1.
        2    1    1    2  501    0  0.71152097157E+02 -0.13326227529E+03  0.69349999514E+03  0.70976312824E+03  0.00000000000E+00 0. -1.
        1    1    1    2  502    0 -0.12160157178E+03 -0.82237191757E+02 -0.14301508653E+04  0.14376652585E+04  0.00000000000E+00 0. -1.
<mgrwt>
<rscale>  0 0.14989694E+03</rscale>
<asrwt>0</asrwt>
<pdfrwt beam="1">  1        2 0.23421345E+00 0.14679884E+03</pdfrwt>
<pdfrwt beam="2">  1        1 0.28763331E+00 0.15306044E+03</pdfrwt>
<totfact> 0.83803103E+00</totfact>
</mgrwt>
</event>
<event>
10   0  0.7688500E-08  0.1715304E+03  0.7546771E-02  0.1246350E+00
        2   -1    0    0  502    0  0.00000000000E+00  0.00000000000E+00  0.14520536192E+04  0.14520536192E+04  0.00000000000E+00 0. -1.
        1   -1    0    0  501    0  0.00000000000E+00  0.00000000000E+00 -0.13618938177E+04  0.13618938177E+04  0.00000000000E+00 0. -1.
       23    2    1    2    0    0 -0.54906885997E+02 -0.73095245141E+02  0.12467060445E+03  0.18243996814E+03  0.96870539227E+02 0.  0.
       23    2    1    2    0    0 -0.18074761196E+02 -0.99218452563E+02 -0.41640514840E+02  0.14210450559E+03  0.91042625794E+02 0.  0.
      -11    1    4    4    0    0  0.19553581861E+02 -0.84447618444E+02 -0.51053743732E+02  0.10059934181E+03  0.00000000000E+00 0.  1.
       11    1    4    4    0    0 -0.37628343057E+02 -0.14770834119E+02  0.94132288924E+01  0.41505163775E+02  0.00000000000E+00 0. -1.
      -13    1    3    3    0    0  0.10498115042E+02 -0.28057358149E+02 -0.50133742044E+01  0.30373667652E+02  0.00000000000E+00 0. -1.
       13    1    3    3    0    0 -0.65405001038E+02 -0.45037886993E+02  0.12968397865E+03  0.15206630049E+03  0.00000000000E+00 0.  1.
        2    1    1    2  501    0  0.81144190485E+02 -0.40016309350E+01 -0.12335543111E+04  0.12362267717E+04  0.00000000000E+00 0. -1.
        1    1    1    2  502    0 -0.81625432920E+01  0.17631532864E+03  0.12406840229E+04  0.12531761915E+04  0.00000000000E+00 0. -1.
<mgrwt>
<rscale>  0 0.11804917E+03</rscale>
<asrwt>0</asrwt>
<pdfrwt beam="1">  1        2 0.22339286E+00 0.17153036E+03</pdfrwt>
<pdfrwt beam="2">  1        1 0.20952213E+00 0.81242801E+02</pdfrwt>
<totfact> 0.20274840E+01</totfact>
</mgrwt>
</event>
<event>
10   0  0.7688500E-08  0.1724734E+03  0.7546771E-02  0.1258644E+00
        2   -1    0    0  502    0  0.00000000000E+00  0.00000000000E+00  0.76633540122E+03  0.76633540122E+03  0.00000000000E+00 0. -1.
        1   -1    0    0  501    0  0.00000000000E+00  0.00000000000E+00 -0.98166049692E+03  0.98166049692E+03  0.00000000000E+00 0. -1.
       23    2    1    2    0    0  0.74100699975E+02 -0.14322364064E+03 -0.28237681184E+03  0.33809359240E+03  0.92556406468E+02 0.  0.
       23    2    1    2    0    0 -0.17364792062E+03  0.33952800007E+02  0.17753745903E+03  0.26676328755E+03  0.91305581753E+02 0.  0.
      -11    1    3    3    0    0 -0.56023788687E+01  0.24531543079E+01  0.38204708444E+01  0.72111450214E+01  0.00000000000E+00 0. -1.
       11    1    3    3    0    0  0.79703078844E+02 -0.14567679495E+03 -0.28619728269E+03  0.33088244738E+03  0.00000000000E+00 0.  1.
      -13    1    4    4    0    0 -0.10980584508E+03  0.28952886844E+02  0.50055733524E+02  0.12410144935E+03  0.00000000000E+00 0.  1.
       13    1    4    4    0    0 -0.63842075537E+02  0.49999131631E+01  0.12748172551E+03  0.14266183820E+03  0.00000000000E+00 0. -1.
        2    1    1    2  501    0  0.15946963255E+03  0.70269321064E+02 -0.61211619630E+03  0.63643898291E+03  0.00000000000E+00 0. -1.
        1    1    1    2  502    0 -0.59922411906E+02  0.39001519566E+02  0.50163045341E+03  0.50670003529E+03  0.00000000000E+00 0. -1.
<mgrwt>
<rscale>  0 0.11104648E+03</rscale>
<asrwt>0</asrwt>
<pdfrwt beam="1">  1        2 0.11789775E+00 0.71496951E+02</pdfrwt>
<pdfrwt beam="2">  1        1 0.15102469E+00 0.17247337E+03</pdfrwt>
<totfact> 0.91520064E+01</totfact>
</mgrwt>
</event>
<event>
10   0  0.7688500E-08  0.8012334E+03  0.7546771E-02  0.9782454E-01
        1   -1    0    0  501    0  0.00000000000E+00  0.00000000000E+00  0.14527042071E+04  0.14527042071E+04  0.00000000000E+00 0. -1.
        2   -1    0    0  502    0  0.00000000000E+00  0.00000000000E+00 -0.17071405124E+04  0.17071405124E+04  0.00000000000E+00 0. -1.
       23    2    1    2    0    0  0.30095522535E+03 -0.20522310695E+03  0.18254458201E+02  0.37637612348E+03  0.92925721915E+02 0.  0.
       23    2    1    2    0    0 -0.25613071615E+03 -0.60238147756E+03  0.26993057007E+03  0.71402090070E+03  0.92178878849E+02 0.  0.
      -11    1    3    3    0    0  0.45346071734E+02 -0.79261437252E+01 -0.21927184206E+02  0.50989130050E+02  0.00000000000E+00 0. -1.
       11    1    3    3    0    0  0.25560915362E+03 -0.19729696322E+03  0.40181642407E+02  0.32538699343E+03  0.00000000000E+00 0.  1.
      -13    1    4    4    0    0 -0.18576437488E+03 -0.51146152952E+03  0.24297246210E+03  0.59593365108E+03  0.00000000000E+00 0.  1.
       13    1    4    4    0    0 -0.70366341270E+02 -0.90919948045E+02  0.26958107965E+02  0.11808724961E+03  0.00000000000E+00 0. -1.
        2    1    1    2  501    0  0.63460165898E+03  0.15455838068E+03  0.37580235812E+03  0.75354825392E+03  0.00000000000E+00 0. -1.
        1    1    1    2  502    0 -0.67942616818E+03  0.65304620383E+03 -0.91842369170E+03  0.13158994414E+04  0.00000000000E+00 0. -1.
<mgrwt>
<rscale>  0 0.66312737E+03</rscale>
<asrwt>0</asrwt>
<pdfrwt beam="1">  1        2 0.26263700E+00 0.80123341E+03</pdfrwt>
<pdfrwt beam="2">  1        1 0.22349295E+00 0.54882623E+03</pdfrwt>
<totfact> 0.97509190E+00</totfact>
</mgrwt>
</event>
<event>
11   0  0.7688500E-08  0.1406560E+03  0.7546771E-02  0.1229854E+00
       -1   -1    0    0    0  501  0.00000000000E+00  0.00000000000E+00  0.29673512231E+03  0.29673512231E+03  0.00000000000E+00 0.  1.
        2   -1    0    0  501    0  0.00000000000E+00  0.00000000000E+00 -0.30925007712E+03  0.30925007712E+03  0.00000000000E+00 0. -1.
       23    2    1    2    0    0  0.58667562001E+01  0.31627740760E+02  0.21242598451E+03  0.23380206878E+03  0.92216460868E+02 0.  0.
       24    2    1    2    0    0 -0.10723662391E+03 -0.47280197775E+02 -0.49938883094E+02  0.14948329787E+03  0.78206481100E+02 0.  0.
       23    2    1    2    0    0  0.10136986771E+03  0.15652457015E+02 -0.17500205622E+03  0.22269983279E+03  0.91916518382E+02 0.  0.
      -11    1    3    3    0    0 -0.18533752762E+02  0.18879849321E+02  0.20297972912E+03  0.20469665150E+03  0.00000000000E+00 0.  1.
       11    1    3    3    0    0  0.24400508962E+02  0.12747891440E+02  0.94462553869E+01  0.29105417272E+02  0.00000000000E+00 0. -1.
      -13    1    5    5    0    0  0.69397453471E+02  0.36853012507E+02 -0.52926632292E+02  0.94738479431E+02  0.00000000000E+00 0.  1.
       13    1    5    5    0    0  0.31972414243E+02 -0.21200555492E+02 -0.12207542393E+03  0.12796135336E+03  0.00000000000E+00 0. -1.
        2    1    4    4  502    0 -0.82051397416E+02 -0.69130587422E+02 -0.41918498603E+02  0.11518954145E+03  0.00000000000E+00 0. -1.
       -1    1    4    4    0  502 -0.25185226499E+02  0.21850389647E+02 -0.80203844906E+01  0.34293756412E+02  0.00000000000E+00 0.  1.
<mgrwt>
<rscale>  0 0.12839685E+03</rscale>
<asrwt>0</asrwt>
<pdfrwt beam="1">  1        2 0.47576935E-01 0.14065602E+03</pdfrwt>
<pdfrwt beam="2">  1       -1 0.45651557E-01 0.14065602E+03</pdfrwt>
<totfact> 0.58917234E+02</totfact>
</mgrwt>
</event>
<event>
10   0  0.7688500E-08  0.5636859E+02  0.7546771E-02  0.1427941E+00
        4   -1    0    0  502    0  0.00000000000E+00  0.00000000000E+00  0.15955761889E+03  0.15955761889E+03  0.00000000000E+00 0. -1.
        1   -1    0    0  501    0  0.00000000000E+00  0.00000000000E+00 -0.36504822146E+03  0.36504822146E+03  0.00000000000E+00 0. -1.
       23    2    1    2    0    0 -0.19445991471E+02 -0.47790189330E+02  0.36257780803E+02  0.11108663910E+03  0.91452533794E+02 0.  0.
       23    2    1    2    0    0 -0.28419298403E+02 -0.19349802641E+02 -0.78995659312E+02  0.11888275066E+03  0.81919001640E+02 0.  0.
      -11    1    4    4    0    0 -0.27930064361E+02  0.56353925129E+01 -0.87861974389E+02  0.92366512804E+02  0.00000000000E+00 0.  1.
       11    1    4    4    0    0 -0.48923404198E+00 -0.24985195154E+02  0.88663150769E+01  0.26516237853E+02  0.00000000000E+00 0. -1.
      -13    1    3    3    0    0 -0.13980210958E+02  0.20465537904E+02  0.34639640679E+02  0.42593300488E+02  0.00000000000E+00 0.  1.
       13    1    3    3    0    0 -0.54657805129E+01 -0.68255727233E+02  0.16181401238E+01  0.68493338612E+02  0.00000000000E+00 0. -1.
        2    1    1    2  501    0 -0.48630597675E+01  0.50307081869E+02 -0.21358669771E+03  0.21948514591E+03  0.00000000000E+00 0. -1.
        3    1    1    2  502    0  0.52728349641E+02  0.16832910102E+02  0.50833973650E+02  0.75151304682E+02  0.00000000000E+00 0. -1.
<mgrwt>
<rscale>  0 0.53375631E+02</rscale>
<asrwt>0</asrwt>
<pdfrwt beam="1">  1        4 0.24547326E-01 0.56368591E+02</pdfrwt>
<pdfrwt beam="2">  1        1 0.56161265E-01 0.50541585E+02</pdfrwt>
<totfact> 0.43230666E+02</totfact>
</mgrwt>
</event>
<event>
11   0  0.7688500E-08  0.1082710E+03  0.7546771E-02  0.1271927E+00
       -1   -1    0    0    0  501  0.00000000000E+00  0.00000000000E+00  0.75253082521E+02  0.75253082521E+02  0.00000000000E+00 0.  1.
        2   -1    0    0  501    0  0.00000000000E+00  0.00000000000E+00 -0.10191446709E+04  0.10191446709E+04  0.00000000000E+00 0. -1.
       23    2    1    2    0    0 -0.22978153836E+02 -0.20294142741E+02 -0.25319866266E+03  0.27188365470E+03  0.94187637903E+02 0.  0.
       24    2    1    2    0    0 -0.45844054331E+02  0.69804969435E+01  0.27286181091E+02  0.95380387214E+02  0.78755812049E+02 0.  0.
       23    2    1    2    0    0  0.68822208167E+02  0.13313645797E+02 -0.71797910681E+03  0.72713371151E+03  0.91190389304E+02 0.  0.
      -11    1    5    5    0    0  0.15949664278E+02  0.47558647603E+02 -0.38436156467E+03  0.38762098647E+03  0.00000000000E+00 0.  1.
       11    1    5    5    0    0  0.52872543889E+02 -0.34245001806E+02 -0.33361754214E+03  0.33951272504E+03  0.00000000000E+00 0. -1.
      -13    1    3    3    0    0 -0.51064160673E+02  0.15644635981E+02 -0.13307637961E+03  0.14339325629E+03  0.00000000000E+00 0.  1.
       13    1    3    3    0    0  0.28086006837E+02 -0.35938778722E+02 -0.12012228306E+03  0.12849039841E+03  0.00000000000E+00 0. -1.
        4    1    4    4  502    0 -0.27337801026E+02  0.20314992980E+02 -0.22361054037E+02  0.40743969398E+02  0.00000000000E+00 0. -1.
       -3    1    4    4    0  502 -0.18506253305E+02 -0.13334496036E+02  0.49647235127E+02  0.54636417816E+02  0.00000000000E+00 0.  1.
<mgrwt>
<rscale>  0 0.10408784E+03</rscale>
<asrwt>0</asrwt>
<pdfrwt beam="1">  1        2 0.15679149E+00 0.10827098E+03</pdfrwt>
<pdfrwt beam="2">  1       -1 0.11577397E-01 0.10827098E+03</pdfrwt>
<totfact> 0.14102789E+03</totfact>
</mgrwt>
</event>
<event>
11   0  0.7688500E-08  0.2213435E+03  0.7546771E-02  0.1136446E+00
        2   -1    0    0  501    0  0.00000000000E+00  0.00000000000E+00  0.32643669744E+03  0.32643669744E+03  0.00000000000E+00 0. -1.
       -1   -1    0    0    0  501  0.00000000000E+00  0.00000000000E+00 -0.84960686034E+03  0.84960686034E+03  0.00000000000E+00 0.  1.
       23    2    1    2    0    0 -0.16135457588E+03  0.79598093760E+02 -0.50209226801E+03  0.54116330740E+03  0.91596528238E+02 0.  0.
       24    2    1    2    0    0  0.15841306689E+03  0.14344605490E+03  0.20423114652E+03  0.30627988923E+03  0.80159459249E+02 0.  0.
       23    2    1    2    0    0  0.29415089906E+01 -0.22304414866E+03 -0.22530904140E+03  0.32860036116E+03  0.86352119187E+02 0.  0.
      -11    1    3    3    0    0 -0.12236837070E+03  0.96316487211E+02 -0.43227061648E+03  0.45946574380E+03  0.00000000000E+00 0.  1.
       11    1    3    3    0    0 -0.38986205188E+02 -0.16718393451E+02 -0.69821651531E+02  0.81697563593E+02  0.00000000000E+00 0. -1.
      -13    1    5    5    0    0 -0.23892475349E+01  0.71952358062E+01 -0.20674006879E+01  0.78583756396E+01  0.00000000000E+00 0. -1.
       13    1    5    5    0    0  0.53307565255E+01 -0.23023938447E+03 -0.22324164071E+03  0.32074198552E+03  0.00000000000E+00 0.  1.
        2    1    4    4  502    0  0.74577347440E+02  0.49033015008E+02  0.13624690942E+03  0.16287798390E+03  0.00000000000E+00 0. -1.
       -1    1    4    4    0  502  0.83835719454E+02  0.94413039894E+02  0.67984237098E+02  0.14340190533E+03  0.00000000000E+00 0.  1.
<mgrwt>
<rscale>  0 0.21659681E+03</rscale>
<asrwt>0</asrwt>
<pdfrwt beam="1">  1        2 0.50221030E-01 0.22134349E+03</pdfrwt>
<pdfrwt beam="2">  1       -1 0.13070875E+00 0.22134349E+03</pdfrwt>
<totfact> 0.62321460E+01</totfact>
</mgrwt>
</event>
<event>
10   0  0.7688500E-08  0.2107460E+03  0.7546771E-02  0.1149913E+00
        3   -1    0    0  501    0  0.00000000000E+00  0.00000000000E+00  0.12772949576E+04  0.12772949576E+04  0.00000000000E+00 0. -1.
        2   -1    0    0  502    0  0.00000000000E+00  0.00000000000E+00 -0.60061627256E+03  0.60061627256E+03  0.00000000000E+00 0. -1.
       23    2    1    2    0    0 -0.94579208370E+02 -0.52284582329E+02 -0.65123197715E+02  0.15613820029E+03  0.91973922963E+02 0.  0.
       23    2    1    2    0    0 -0.37610213094E+02 -0.14200495645E+03  0.64729160225E+03  0.67031808531E+03  0.93594772079E+02 0.  0.
      -11    1    3    3    0    0 -0.79045527443E+02  0.72830534323E+01 -0.45657114196E+02  0.91574070308E+02  0.00000000000E+00 0.  1.
       11    1    3    3    0    0 -0.15533680927E+02 -0.59567635761E+02 -0.19466083518E+02  0.64564129986E+02  0.00000000000E+00 0. -1.
      -13    1    4    4    0    0 -0.45046524278E+02 -0.20505960354E+02  0.24772986385E+03  0.25262574929E+03  0.00000000000E+00 0. -1.
       13    1    4    4    0    0  0.74363111840E+01 -0.12149899610E+03  0.39956173840E+03  0.41769233602E+03  0.00000000000E+00 0.  1.
        4    1    1    2  501    0 -0.19880303989E+03  0.37441629154E+02  0.47928025920E+03  0.52022503892E+03  0.00000000000E+00 0. -1.
        1    1    1    2  502    0  0.33099246135E+03  0.15684790963E+03 -0.38476997864E+03  0.53122990568E+03  0.00000000000E+00 0. -1.
<mgrwt>
<rscale>  0 0.19979420E+03</rscale>
<asrwt>0</asrwt>
<pdfrwt beam="1">  1        2 0.92402503E-01 0.18941153E+03</pdfrwt>
<pdfrwt beam="2">  1        3 0.19650692E+00 0.21074600E+03</pdfrwt>
<totfact> 0.52892938E+00</totfact>
</mgrwt>
</event>
<event>
10   0  0.7688500E-08  0.1841818E+03  0.7546771E-02  0.1174026E+00
        2   -1    0    0  502    0  0.00000000000E+00  0.00000000000E+00  0.90484061326E+03  0.90484061326E+03  0.00000000000E+00 0. -1.
        1   -1    0    0  501    0  0.00000000000E+00  0.00000000000E+00 -0.37543120376E+04  0.37543120376E+04  0.00000000000E+00 0. -1.
       23    2    1    2    0    0 -0.57107388946E+02 -0.52295076193E+02  0.19454727785E+03  0.22883812348E+03  0.92315841390E+02 0.  0.
       23    2    1    2    0    0 -0.11282463385E+03 -0.45465830431E+02 -0.11859168949E+04  0.11955992605E+04  0.90896481660E+02 0.  0.
      -11    1    3    3    0    0  0.20884604103E+02 -0.42580491167E+01  0.11661337247E+02  0.24295770357E+02  0.00000000000E+00 0.  1.
       11    1    3    3    0    0 -0.77991993050E+02 -0.48037027076E+02  0.18288594060E+03  0.20454235312E+03  0.00000000000E+00 0. -1.
      -13    1    4    4    0    0 -0.12532473001E+03 -0.27191220286E+02 -0.10626100157E+04  0.10703203707E+04  0.00000000000E+00 0.  1.
       13    1    4    4    0    0  0.12500096163E+02 -0.18274610145E+02 -0.12330687915E+03  0.12527888979E+03  0.00000000000E+00 0. -1.
        2    1    1    2  501    0  0.47082573702E+02 -0.16779706453E+03 -0.25121570940E+04  0.25181949663E+04  0.00000000000E+00 0. -1.
        1    1    1    2  502    0  0.12284944909E+03  0.26555797115E+03  0.65405528664E+03  0.71652030059E+03  0.00000000000E+00 0. -1.
<mgrwt>
<rscale>  0 0.17371672E+03</rscale>
<asrwt>0</asrwt>
<pdfrwt beam="1">  1        2 0.13920625E+00 0.16384625E+03</pdfrwt>
<pdfrwt beam="2">  1        1 0.57758647E+00 0.18418181E+03</pdfrwt>
<totfact> 0.90981679E-01</totfact>
</mgrwt>
</event>
<event>
10   0  0.7688500E-08  0.1387619E+03  0.7546771E-02  0.1219362E+00
        4   -1    0    0  501    0  0.00000000000E+00  0.00000000000E+00  0.25817298134E+03  0.25817298134E+03  0.00000000000E+00 0. -1.
        1   -1    0    0  502    0  0.00000000000E+00  0.00000000000E+00 -0.54606366818E+03  0.54606366818E+03  0.00000000000E+00 0. -1.
       23    2    1    2    0    0  0.65941992729E+02  0.11392241250E+03 -0.47164019174E+02  0.16665653685E+03  0.90682380285E+02 0.  0.
       23    2    1    2    0    0 -0.90656177021E+02 -0.16860362617E+02  0.11307085181E+03  0.16784331128E+03  0.82967134164E+02 0.  0.
      -11    1    4    4    0    0 -0.81962772198E+02 -0.38799139941E+02  0.11215242705E+03  0.14422702999E+03  0.00000000000E+00 0.  1.
       11    1    4    4    0    0 -0.86934048234E+01  0.21938777324E+02  0.91842476418E+00  0.23616281289E+02  0.00000000000E+00 0. -1.
      -13    1    3    3    0    0 -0.21030176355E+02  0.77526186196E+01 -0.38729008855E+01  0.22745785857E+02  0.00000000000E+00 0.  1.
       13    1    3    3    0    0  0.86972169084E+02  0.10616979388E+03 -0.43291118288E+02  0.14391075099E+03  0.00000000000E+00 0. -1.
        4    1    1    2  501    0 -0.13280722247E+03 -0.57596355603E+02 -0.19248261208E+03  0.24084155470E+03  0.00000000000E+00 0. -1.
        1    1    1    2  502    0  0.15752140676E+03 -0.39465694281E+02 -0.16131490739E+03  0.22889524670E+03  0.00000000000E+00 0. -1.
<mgrwt>
<rscale>  0 0.13560915E+03</rscale>
<asrwt>0</asrwt>
<pdfrwt beam="1">  1        4 0.39718920E-01 0.13252799E+03</pdfrwt>
<pdfrwt beam="2">  1        1 0.84009795E-01 0.13876194E+03</pdfrwt>
<totfact> 0.11312448E+02</totfact>
</mgrwt>
</event>
<event>
10   0  0.7688500E-08  0.1118252E+03  0.7546771E-02  0.1301780E+00
       -3   -1    0    0    0  501  0.00000000000E+00  0.00000000000E+00  0.11776516901E+03  0.11776516901E+03  0.00000000000E+00 0.  1.
        1   -1    0    0  502    0  0.00000000000E+00  0.00000000000E+00 -0.26733633253E+04  0.26733633253E+04  0.00000000000E+00 0. -1.
       23    2    1    2    0    0  0.22330404566E+03 -0.11300967985E+03 -0.41866669464E+03  0.49635956331E+03  0.91951782676E+02 0.  0.
       23    2    1    2    0    0 -0.10804829040E+03  0.25177867871E+03 -0.27094851421E+03  0.39952992146E+03  0.10556573630E+03 0.  0.
      -11    1    3    3    0    0  0.63118911225E+02 -0.76742462499E+02 -0.19513282034E+03  0.21897538692E+03  0.00000000000E+00 0. -1.
       11    1    3    3    0    0  0.16018513443E+03 -0.36267217355E+02 -0.22353387430E+03  0.27738417639E+03  0.00000000000E+00 0.  1.
      -13    1    4    4    0    0 -0.54756111956E+02  0.22908670104E+03 -0.21221028682E+03  0.31703651875E+03  0.00000000000E+00 0.  1.
       13    1    4    4    0    0 -0.53292178446E+02  0.22691977670E+02 -0.58738227392E+02  0.82493402713E+02  0.00000000000E+00 0. -1.
        2    1    1    2  502    0 -0.83245384940E+02 -0.72993527639E+02 -0.17752111305E+04  0.17786602844E+04  0.00000000000E+00 0. -1.
       -4    1    1    2    0  501 -0.32010370317E+02 -0.65775471214E+02 -0.90771816942E+02  0.11657872521E+03  0.00000000000E+00 0.  1.
<mgrwt>
<rscale>  0 0.90444063E+02</rscale>
<asrwt>0</asrwt>
<pdfrwt beam="1">  1        1 0.41128667E+00 0.11182517E+03</pdfrwt>
<pdfrwt beam="2">  1       -3 0.18117718E-01 0.73151052E+02</pdfrwt>
<totfact> 0.18376568E+01</totfact>
</mgrwt>
</event>
<event>
10   0  0.7688500E-08  0.1158617E+03  0.7546771E-02  0.1301120E+00
        2   -1    0    0  502    0  0.00000000000E+00  0.00000000000E+00  0.24030654595E+04  0.24030654595E+04  0.00000000000E+00 0. -1.
       -4   -1    0    0    0  501  0.00000000000E+00  0.00000000000E+00 -0.52442797059E+02  0.52442797059E+02  0.00000000000E+00 0.  1.
       23    2    1    2    0    0  0.28909353220E+02  0.62343587898E+01  0.80279227832E+02  0.13950099472E+03  0.11018691018E+03 0.  0.
       23    2    1    2    0    0 -0.37468638851E+02  0.66711166076E+02  0.22293857391E+03  0.25239807063E+03  0.90271256473E+02 0.  0.
      -11    1    3    3    0    0  0.62484063050E+01  0.29580149324E+02 -0.18539099030E+02  0.35464433003E+02  0.00000000000E+00 0.  1.
       11    1    3    3    0    0  0.22660946915E+02 -0.23345790534E+02  0.98818326862E+02  0.10403656172E+03  0.00000000000E+00 0. -1.
      -13    1    4    4    0    0  0.24135053519E+02  0.44810396892E+02  0.74808182473E+02  0.90480587105E+02  0.00000000000E+00 0.  1.
       13    1    4    4    0    0 -0.61603692370E+02  0.21900769183E+02  0.14813039143E+03  0.16191748352E+03  0.00000000000E+00 0. -1.
        1    1    1    2  502    0 -0.65923956097E+02 -0.26450237923E+02  0.17943266483E+04  0.17957320802E+04  0.00000000000E+00 0. -1.
       -3    1    1    2    0  501  0.74483241728E+02 -0.46495286943E+02  0.25307821238E+03  0.26787711098E+03  0.00000000000E+00 0.  1.
<mgrwt>
<rscale>  0 0.90718895E+02</rscale>
<asrwt>0</asrwt>
<pdfrwt beam="1">  1        2 0.36970238E+00 0.71032268E+02</pdfrwt>
<pdfrwt beam="2">  1       -4 0.80681226E-02 0.11586168E+03</pdfrwt>
<totfact> 0.28780224E+02</totfact>
</mgrwt>
</event>
<event>
10   0  0.7688500E-08  0.1375805E+03  0.7546771E-02  0.1262752E+00
        2   -1    0    0  502    0  0.00000000000E+00  0.00000000000E+00  0.19598686532E+03  0.19598686532E+03  0.00000000000E+00 0. -1.
        1   -1    0    0  501    0  0.00000000000E+00  0.00000000000E+00 -0.11321156625E+04  0.11321156625E+04  0.00000000000E+00 0. -1.
       23    2    1    2    0    0  0.79819466117E+02  0.11082876334E+03 -0.16963379775E+03  0.23563983921E+03  0.89979700659E+02 0.  0.
       23    2    1    2    0    0  0.62137573124E+02  0.35923957885E+02 -0.18699512914E+03  0.22494537481E+03  0.10237985439E+03 0.  0.
      -11    1    3    3    0    0  0.37635420697E+01  0.47776925513E+02 -0.11063912711E+03  0.12057286306E+03  0.00000000000E+00 0.  1.
       11    1    3    3    0    0  0.76055924047E+02  0.63051837826E+02 -0.58994670645E+02  0.11506697615E+03  0.00000000000E+00 0. -1.
      -13    1    4    4    0    0  0.28720296483E+02 -0.34429263751E+02 -0.48480653650E+02  0.66034865116E+02  0.00000000000E+00 0.  1.
       13    1    4    4    0    0  0.33417276640E+02  0.70353221636E+02 -0.13851447549E+03  0.15891050970E+03  0.00000000000E+00 0. -1.
        2    1    1    2  501    0 -0.61930138994E+02 -0.11502217852E+03 -0.70407441365E+03  0.71609093251E+03  0.00000000000E+00 0. -1.
        1    1    1    2  502    0 -0.80026900246E+02 -0.31730542704E+02  0.12457454335E+03  0.15142638130E+03  0.00000000000E+00 0. -1.
<mgrwt>
<rscale>  0 0.10883023E+03</rscale>
<asrwt>0</asrwt>
<pdfrwt beam="1">  1        2 0.30151825E-01 0.86087932E+02</pdfrwt>
<pdfrwt beam="2">  1        1 0.17417164E+00 0.13758048E+03</pdfrwt>
<totfact> 0.31211955E+02</totfact>
</mgrwt>
</event>
<event>
11   0  0.7688500E-08  0.1489393E+03  0.7546771E-02  0.1221501E+00
       -1   -1    0    0    0  501  0.00000000000E+00  0.00000000000E+00  0.41987628981E+02  0.41987628981E+02  0.00000000000E+00 0.  1.
        2   -1    0    0  501    0  0.00000000000E+00  0.00000000000E+00 -0.33343193740E+04  0.33343193740E+04  0.00000000000E+00 0. -1.
       23    2    1    2    0    0  0.79344470824E+02  0.58227522378E+02 -0.20750692594E+03  0.25005753649E+03  0.98912374496E+02 0.  0.
       24    2    1    2    0    0  0.51496920465E+02 -0.24369162730E+02 -0.27721409475E+04  0.27738679800E+04  0.79576054894E+02 0.  0.
       23    2    1    2    0    0 -0.13084139129E+03 -0.33858359648E+02 -0.31268387149E+03  0.35238148645E+03  0.90197839824E+02 0.  0.
      -11    1    3    3    0    0  0.33385354271E+02  0.26188549557E+02 -0.84470760409E+01  0.43264016241E+02  0.00000000000E+00 0.  1.
       11    1    3    3    0    0  0.45959116554E+02  0.32038972821E+02 -0.19905984990E+03  0.20679352025E+03  0.00000000000E+00 0. -1.
      -13    1    5    5    0    0 -0.24245915486E+01  0.10487995514E+02  0.72921896837E+00  0.10789274970E+02  0.00000000000E+00 0. -1.
       13    1    5    5    0    0 -0.12841679974E+03 -0.44346355162E+02 -0.31341309046E+03  0.34159221148E+03  0.00000000000E+00 0.  1.
        4    1    4    4  502    0  0.29485699617E+02 -0.34100716204E+02 -0.25549564297E+04  0.25553541092E+04  0.00000000000E+00 0. -1.
       -3    1    4    4    0  502  0.22011220848E+02  0.97315534741E+01 -0.21718451780E+03  0.21851387083E+03  0.00000000000E+00 0.  1.
<mgrwt>
<rscale>  0 0.13409643E+03</rscale>
<asrwt>0</asrwt>
<pdfrwt beam="1">  1        2 0.51297221E+00 0.14893934E+03</pdfrwt>
<pdfrwt beam="2">  1       -1 0.64596352E-02 0.14893934E+03</pdfrwt>
<totfact> 0.18701235E+02</totfact>
</mgrwt>
</event>
<event>
11   0  0.7688500E-08  0.1843723E+03  0.7546771E-02  0.1187196E+00
       -1   -1    0    0    0  501  0.00000000000E+00  0.00000000000E+00  0.13908474575E+03  0.13908474575E+03  0.00000000000E+00 0.  1.
        2   -1    0    0  501    0  0.00000000000E+00  0.00000000000E+00 -0.66150190880E+03  0.66150190880E+03  0.00000000000E+00 0. -1.
       23    2    1    2    0    0 -0.73912747656E+02  0.14956246339E+03  0.21379704232E+02  0.19104181722E+03  0.90597237554E+02 0.  0.
       23    2    1    2    0    0 -0.75793542232E+01 -0.57424074414E+02 -0.13873553930E+03  0.17533376798E+03  0.90218675439E+02 0.  0.
       24    2    1    2    0    0  0.81492101879E+02 -0.92138388973E+02 -0.40506132798E+03  0.43421106935E+03  0.96613290659E+02 0.  0.
      -11    1    4    4    0    0 -0.42512953193E+02 -0.35606385165E+01 -0.48542598980E+02  0.64625175060E+02  0.00000000000E+00 0. -1.
       11    1    4    4    0    0  0.34933598970E+02 -0.53863435898E+02 -0.90192940320E+02  0.11070859292E+03  0.00000000000E+00 0.  1.
      -13    1    3    3    0    0 -0.63749894814E+02  0.90328906315E+02  0.53581831115E+02  0.12285915933E+03  0.00000000000E+00 0.  1.
       13    1    3    3    0    0 -0.10162852842E+02  0.59233557072E+02 -0.32202126883E+02  0.68182657891E+02  0.00000000000E+00 0. -1.
        2    1    5    5  502    0  0.51273951930E+01 -0.77668135176E+02 -0.18006366864E+03  0.19616715874E+03  0.00000000000E+00 0. -1.
       -1    1    5    5    0  502  0.76364706686E+02 -0.14470253797E+02 -0.22499765934E+03  0.23804391061E+03  0.00000000000E+00 0.  1.
<mgrwt>
<rscale>  0 0.16133619E+03</rscale>
<asrwt>0</asrwt>
<pdfrwt beam="1">  1        2 0.10176952E+00 0.18437234E+03</pdfrwt>
<pdfrwt beam="2">  1       -1 0.21397653E-01 0.18437234E+03</pdfrwt>
<totfact> 0.92670535E+02</totfact>
</mgrwt>
</event>
<event>
10   0  0.7688500E-08  0.2008160E+03  0.7546771E-02  0.1235709E+00
        1   -1    0    0  501    0  0.00000000000E+00  0.00000000000E+00  0.83034790286E+03  0.83034790286E+03  0.00000000000E+00 0. -1.
        2   -1    0    0  502    0  0.00000000000E+00  0.00000000000E+00 -0.17855140024E+03  0.17855140024E+03  0.00000000000E+00 0. -1.
       23    2    1    2    0    0  0.20784680976E+03  0.52616770125E+02  0.64085965557E+02  0.24151271672E+03  0.90843604788E+02 0.  0.
       23    2    1    2    0    0 -0.51031098164E+02 -0.14430655617E+03  0.10066338249E+03  0.20450293530E+03  0.90883325404E+02 0.  0.
      -11    1    4    4    0    0 -0.18592408424E+02 -0.13356849472E+03  0.50910092910E+02  0.14414596072E+03  0.00000000000E+00 0. -1.
       11    1    4    4    0    0 -0.32438689740E+02 -0.10738061453E+02  0.49753289578E+02  0.60356974573E+02  0.00000000000E+00 0.  1.
      -13    1    3    3    0    0  0.12427080789E+03  0.67665697183E+02  0.66963530799E+02  0.15654390671E+03  0.00000000000E+00 0.  1.
       13    1    3    3    0    0  0.83576001864E+02 -0.15048927059E+02 -0.28775652426E+01  0.84968810012E+02  0.00000000000E+00 0. -1.
        2    1    1    2  501    0 -0.18383440597E+03  0.19265603839E+02  0.23344914866E+03  0.29776627969E+03  0.00000000000E+00 0. -1.
        1    1    1    2  502    0  0.27018694376E+02  0.72424182207E+02  0.25359800592E+03  0.26511737140E+03  0.00000000000E+00 0. -1.
<mgrwt>
<rscale>  0 0.12459155E+03</rscale>
<asrwt>0</asrwt>
<pdfrwt beam="1">  1        2 0.27469446E-01 0.20081600E+03</pdfrwt>
<pdfrwt beam="2">  1        1 0.12774583E+00 0.77299884E+02</pdfrwt>
<totfact> 0.60646970E+02</totfact>
</mgrwt>
</event>
<event>
10   0  0.7688500E-08  0.1869292E+03  0.7546771E-02  0.1333596E+00
        1   -1    0    0  501    0  0.00000000000E+00  0.00000000000E+00  0.26492746226E+04  0.26492746226E+04  0.00000000000E+00 0. -1.
        2   -1    0    0  502    0  0.00000000000E+00  0.00000000000E+00 -0.36668190462E+03  0.36668190462E+03  0.00000000000E+00 0. -1.
       23    2    1    2    0    0 -0.12112891162E+02  0.89731552103E+02  0.11285913622E+02  0.13021447865E+03  0.92897605073E+02 0.  0.
       23    2    1    2    0    0  0.21170376132E+03 -0.12779599716E+03 -0.23242645547E+03  0.35141882813E+03  0.91229579148E+02 0.  0.
      -11    1    4    4    0    0 -0.40132253841E+01 -0.23320716492E+02 -0.16854329680E+02  0.29052198275E+02  0.00000000000E+00 0.  1.
       11    1    4    4    0    0  0.21571698670E+03 -0.10447528067E+03 -0.21557212579E+03  0.32236662985E+03  0.00000000000E+00 0. -1.
      -13    1    3    3    0    0  0.34453593882E+02  0.61778482683E+02  0.23515093320E+02  0.74542542671E+02  0.00000000000E+00 0.  1.
       13    1    3    3    0    0 -0.46566485044E+02  0.27953069420E+02 -0.12229179698E+02  0.55671935977E+02  0.00000000000E+00 0. -1.
        2    1    1    2  501    0 -0.18639699694E+03  0.79274169245E+01  0.24926289437E+04  0.24996011152E+04  0.00000000000E+00 0. -1.
        1    1    1    2  502    0 -0.13193873213E+02  0.30137028135E+02  0.11104316214E+02  0.34722105261E+02  0.00000000000E+00 0. -1.
<mgrwt>
<rscale>  0 0.78420101E+02</rscale>
<asrwt>0</asrwt>
<pdfrwt beam="1">  1        2 0.56412601E-01 0.32898613E+02</pdfrwt>
<pdfrwt beam="2">  1        1 0.40758071E+00 0.18692922E+03</pdfrwt>
<totfact> 0.15979627E+01</totfact>
</mgrwt>
</event>
<event>
11   0  0.7688500E-08  0.9251586E+02  0.7546771E-02  0.1305026E+00
        2   -1    0    0  501    0  0.00000000000E+00  0.00000000000E+00  0.20344377574E+04  0.20344377574E+04  0.00000000000E+00 0. -1.
       -1   -1    0    0    0  501  0.00000000000E+00  0.00000000000E+00 -0.79707098974E+02  0.79707098974E+02  0.00000000000E+00 0.  1.
       23    2    1    2    0    0  0.69683533399E+01  0.16503070255E+02 -0.44201000755E+02  0.10257259962E+03  0.90810244185E+02 0.  0.
       24    2    1    2    0    0  0.16011446912E+02 -0.21855985657E+02  0.30574094006E+03  0.31593805245E+03  0.74868418004E+02 0.  0.
       23    2    1    2    0    0 -0.22979800251E+02  0.53529154012E+01  0.16931907191E+04  0.16956342043E+04  0.87885257998E+02 0.  0.
      -11    1    3    3    0    0  0.47969196184E+01 -0.36743255710E+02 -0.73378304813E+01  0.37774608325E+02  0.00000000000E+00 0. -1.
       11    1    3    3    0    0  0.21714337215E+01  0.53246325965E+02 -0.36863170274E+02  0.64797991294E+02  0.00000000000E+00 0.  1.
      -13    1    5    5    0    0 -0.41274523122E+02  0.28234002504E+01  0.16048695647E+04  0.16054027151E+04  0.00000000000E+00 0. -1.
       13    1    5    5    0    0  0.18294722870E+02  0.25295151508E+01  0.88321154394E+02  0.90231489211E+02  0.00000000000E+00 0.  1.
        2    1    4    4  502    0 -0.19522978368E+02 -0.32618066337E+02  0.20669870390E+03  0.21016526623E+03  0.00000000000E+00 0. -1.
       -1    1    4    4    0  502  0.35534425279E+02  0.10762080681E+02  0.99042236161E+02  0.10577278622E+03  0.00000000000E+00 0.  1.
<mgrwt>
<rscale>  0 0.89108176E+02</rscale>
<asrwt>0</asrwt>
<pdfrwt beam="1">  1        2 0.31299042E+00 0.92515856E+02</pdfrwt>
<pdfrwt beam="2">  1       -1 0.12262631E-01 0.92515856E+02</pdfrwt>
<totfact> 0.38233881E+02</totfact>
</mgrwt>
</event>
<event>
11   0  0.7688500E-08  0.1263628E+03  0.7546771E-02  0.1247681E+00
       -1   -1    0    0    0  501  0.00000000000E+00  0.00000000000E+00  0.48836916119E+03  0.48836916119E+03  0.00000000000E+00 0.  1.
        2   -1    0    0  501    0  0.00000000000E+00  0.00000000000E+00 -0.12780484183E+03  0.12780484183E+03  0.00000000000E+00 0. -1.
       23    2    1    2    0    0  0.90101253263E+02  0.43410686821E+02 -0.19085225216E+02  0.13973245061E+03  0.95698424027E+02 0.  0.
       24    2    1    2    0    0 -0.40896925976E+02  0.23921670252E+02  0.19064034773E+02  0.94866032706E+02  0.79945743336E+02 0.  0.
       23    2    1    2    0    0 -0.49204327287E+02 -0.67332357072E+02  0.36058550980E+03  0.38157551971E+03  0.92861484125E+02 0.  0.
      -11    1    3    3    0    0  0.72382794096E+02  0.21094182606E+02 -0.55409438747E+02  0.93565160841E+02  0.00000000000E+00 0. -1.
       11    1    3    3    0    0  0.17718459167E+02  0.22316504215E+02  0.36324213531E+02  0.46167289765E+02  0.00000000000E+00 0.  1.
      -13    1    5    5    0    0 -0.23625931073E+01 -0.25366981331E+02  0.13488968493E+02  0.28827380371E+02  0.00000000000E+00 0. -1.
       13    1    5    5    0    0 -0.46841734180E+02 -0.41965375741E+02  0.34709654131E+03  0.35274813934E+03  0.00000000000E+00 0.  1.
        2    1    4    4  502    0 -0.14462998228E+02  0.52138276653E+02  0.13851204233E+02  0.55851894048E+02  0.00000000000E+00 0. -1.
       -1    1    4    4    0  502 -0.26433927748E+02 -0.28216606401E+02  0.52128305401E+01  0.39014138658E+02  0.00000000000E+00 0.  1.
<mgrwt>
<rscale>  0 0.11726368E+03</rscale>
<asrwt>0</asrwt>
<pdfrwt beam="1">  1        2 0.19662283E-01 0.12636276E+03</pdfrwt>
<pdfrwt beam="2">  1       -1 0.75133717E-01 0.12636276E+03</pdfrwt>
<totfact> 0.59888096E+02</totfact>
</mgrwt>
</event>
<event>
10   0  0.7688500E-08  0.2314944E+03  0.7546771E-02  0.1149482E+00
        2   -1    0    0  502    0  0.00000000000E+00  0.00000000000E+00  0.10699609620E+04  0.10699609620E+04  0.00000000000E+00 0. -1.
        1   -1    0    0  501    0  0.00000000000E+00  0.00000000000E+00 -0.13088483153E+04  0.13088483153E+04  0.00000000000E+00 0. -1.
       23    2    1    2    0    0 -0.16620021361E+02 -0.30076549661E+02  0.25421443185E+02  0.99642701442E+02  0.90008856384E+02 0.  0.
       23    2    1    2    0    0 -0.13962304363E+03 -0.39407990003E+02 -0.28536160576E+02  0.17277050080E+03  0.89374210469E+02 0.  0.
      -11    1    4    4    0    0 -0.25237143718E+02 -0.29743297009E+02  0.24766344465E+02  0.46205507877E+02  0.00000000000E+00 0. -1.
       11    1    4    4    0    0 -0.11438589991E+03 -0.96646929941E+01 -0.53302505041E+02  0.12656499292E+03  0.00000000000E+00 0.  1.
      -13    1    3    3    0    0 -0.16945687743E+02  0.30832544456E+02  0.12802118028E+02  0.37439235525E+02  0.00000000000E+00 0.  1.
       13    1    3    3    0    0  0.32566638185E+00 -0.60909094117E+02  0.12619325156E+02  0.62203465917E+02  0.00000000000E+00 0. -1.
        2    1    1    2  501    0 -0.17771039510E+03  0.53130524205E+02 -0.11334221710E+04  0.11484988702E+04  0.00000000000E+00 0. -1.
        1    1    1    2  502    0  0.33395346009E+03  0.16354015459E+02  0.89764953504E+03  0.95789720487E+03  0.00000000000E+00 0. -1.
<mgrwt>
<rscale>  0 0.20030449E+03</rscale>
<asrwt>0</asrwt>
<pdfrwt beam="1">  1        2 0.16460938E+00 0.17331690E+03</pdfrwt>
<pdfrwt beam="2">  1        1 0.20136128E+00 0.23149437E+03</pdfrwt>
<totfact> 0.32753216E+01</totfact>
</mgrwt>
</event>
<event>
10   0  0.7688500E-08  0.1880002E+03  0.7546771E-02  0.1208736E+00
        1   -1    0    0  501    0  0.00000000000E+00  0.00000000000E+00  0.73385205045E+03  0.73385205045E+03  0.00000000000E+00 0. -1.
        2   -1    0    0  502    0  0.00000000000E+00  0.00000000000E+00 -0.74370954587E+03  0.74370954587E+03  0.00000000000E+00 0. -1.
       23    2    1    2    0    0  0.45148245055E+03  0.25317655393E+03 -0.55425782759E+02  0.52902159723E+03  0.94111966950E+02 0.  0.
       23    2    1    2    0    0 -0.37142348100E+03  0.94266983304E+01 -0.65733662557E+02  0.38793541054E+03  0.90159322748E+02 0.  0.
      -11    1    3    3    0    0  0.40271476856E+03  0.24865518620E+03 -0.31046691782E+02  0.47431264321E+03  0.00000000000E+00 0. -1.
       11    1    3    3    0    0  0.48767681994E+02  0.45213677383E+01 -0.24379090977E+02  0.54708954021E+02  0.00000000000E+00 0.  1.
      -13    1    4    4    0    0 -0.11840165084E+03 -0.37605945141E+02 -0.10141310714E+02  0.12464350851E+03  0.00000000000E+00 0.  1.
       13    1    4    4    0    0 -0.25302183017E+03  0.47032643471E+02 -0.55592351843E+02  0.26329190203E+03  0.00000000000E+00 0. -1.
        2    1    1    2  501    0  0.14010774909E+02 -0.10858507355E+03  0.28795301351E+03  0.30806486005E+03  0.00000000000E+00 0. -1.
        1    1    1    2  502    0 -0.94069744455E+02 -0.15401817872E+03 -0.17665106360E+03  0.25253972850E+03  0.00000000000E+00 0. -1.
<mgrwt>
<rscale>  0 0.14346862E+03</rscale>
<asrwt>0</asrwt>
<pdfrwt beam="1">  1        2 0.11441685E+00 0.18800018E+03</pdfrwt>
<pdfrwt beam="2">  1        1 0.11290032E+00 0.10948525E+03</pdfrwt>
<totfact> 0.14770241E+02</totfact>
</mgrwt>
</event>
<event>
10   0  0.7688500E-08  0.2907383E+03  0.7546771E-02  0.1154403E+00
        2   -1    0    0  502    0  0.00000000000E+00  0.00000000000E+00  0.17219741246E+04  0.17219741246E+04  0.00000000000E+00 0. -1.
        1   -1    0    0  501    0  0.00000000000E+00  0.00000000000E+00 -0.12137514003E+04  0.12137514003E+04  0.00000000000E+00 0. -1.
       23    2    1    2    0    0  0.35357850300E+02  0.14003582528E+03 -0.98410749791E+02  0.19768463222E+03  0.92381427809E+02 0.  0.
       23    2    1    2    0    0 -0.11430697586E+03 -0.27928413031E+03 -0.24227420366E+02  0.31519546487E+03  0.87724016123E+02 0.  0.
      -11    1    3    3    0    0 -0.20706641176E+02  0.24643186181E+01 -0.23130555314E+02  0.31142582490E+02  0.00000000000E+00 0.  1.
       11    1    3    3    0    0  0.56064491476E+02  0.13757150666E+03 -0.75280194478E+02  0.16654204973E+03  0.00000000000E+00 0. -1.
      -13    1    4    4    0    0 -0.60729454317E+02 -0.74998670172E+02  0.22049974296E+02  0.98990244548E+02  0.00000000000E+00 0. -1.
       13    1    4    4    0    0 -0.53577521543E+02 -0.20428546014E+03 -0.46277394662E+02  0.21620522032E+03  0.00000000000E+00 0.  1.
        2    1    1    2  501    0 -0.71701496145E+02 -0.10869152927E+03 -0.87736226913E+03  0.88697209899E+03  0.00000000000E+00 0. -1.
        1    1    1    2  502    0  0.15065062170E+03  0.24793983430E+03  0.15082231635E+04  0.15358733289E+04  0.00000000000E+00 0. -1.
<mgrwt>
<rscale>  0 0.19456974E+03</rscale>
<asrwt>0</asrwt>
<pdfrwt beam="1">  1        2 0.26491910E+00 0.29073834E+03</pdfrwt>
<pdfrwt beam="2">  1        1 0.18673098E+00 0.13021119E+03</pdfrwt>
<totfact> 0.16888227E+01</totfact>
</mgrwt>
</event>
<event>
11   0  0.7688500E-08  0.1113415E+03  0.7546771E-02  0.1266972E+00
       -2   -1    0    0    0  501  0.00000000000E+00  0.00000000000E+00  0.29677030463E+02  0.29677030463E+02  0.00000000000E+00 0.  1.
        2   -1    0    0  501    0  0.00000000000E+00  0.00000000000E+00 -0.27888638255E+04  0.27888638255E+04  0.00000000000E+00 0. -1.
       23    2    1    2    0    0  0.43074996574E+02  0.55121767542E+02 -0.14187598356E+03  0.18252080954E+03  0.91055953222E+02 0.  0.
       23    2    1    2    0    0 -0.40319698748E+02 -0.32494402144E+02 -0.32130515590E+03  0.33811590716E+03  0.91672237836E+02 0.  0.
       23    2    1    2    0    0 -0.27552978262E+01 -0.22627365397E+02 -0.22960056556E+04  0.22979041393E+04  0.90564195239E+02 0.  0.
      -11    1    3    3    0    0  0.65246289068E+02  0.57828865655E+02 -0.86522588080E+02  0.12283083566E+03  0.00000000000E+00 0.  1.
       11    1    3    3    0    0 -0.22171292494E+02 -0.27070981128E+01 -0.55353395479E+02  0.59689973882E+02  0.00000000000E+00 0. -1.
      -13    1    5    5    0    0 -0.22375085967E+02  0.25419786822E+02 -0.13905892418E+04  0.13910015275E+04  0.00000000000E+00 0. -1.
       13    1    5    5    0    0  0.19619788140E+02 -0.48047152219E+02 -0.90541641380E+03  0.90690261180E+03  0.00000000000E+00 0.  1.
        1    1    4    4  502    0  0.10346819537E+01  0.30074621028E+02 -0.10153851559E+03  0.10590384103E+03  0.00000000000E+00 0. -1.
       -1    1    4    4    0  502 -0.41354380702E+02 -0.62569023172E+02 -0.21976664031E+03  0.23221206613E+03  0.00000000000E+00 0.  1.
<mgrwt>
<rscale>  0 0.10661370E+03</rscale>
<asrwt>0</asrwt>
<pdfrwt beam="1">  1        2 0.42905597E+00 0.11134149E+03</pdfrwt>
<pdfrwt beam="2">  1       -2 0.45656970E-02 0.11134149E+03</pdfrwt>
<totfact> 0.65292497E+02</totfact>
</mgrwt>
</event>
<event>
10   0  0.7688500E-08  0.1451691E+03  0.7546771E-02  0.1262099E+00
        1   -1    0    0  501    0  0.00000000000E+00  0.00000000000E+00  0.23200490138E+04  0.23200490138E+04  0.00000000000E+00 0. -1.
        2   -1    0    0  502    0  0.00000000000E+00  0.00000000000E+00 -0.46917526339E+04  0.46917526339E+04  0.00000000000E+00 0. -1.
       23    2    1    2    0    0 -0.15552243108E+02 -0.10335997263E+03 -0.16665409102E+03  0.21763688492E+03  0.93097107440E+02 0.  0.
       23    2    1    2    0    0 -0.49170569142E+02  0.86087270376E+01 -0.37991841484E+02  0.11383813095E+03  0.94994131338E+02 0.  0.
      -11    1    3    3    0    0 -0.35009667306E+02 -0.11074478443E+03 -0.12241462183E+03  0.16874662581E+03  0.00000000000E+00 0.  1.
       11    1    3    3    0    0  0.19457424198E+02  0.73848117961E+01 -0.44239469190E+02  0.48890259110E+02  0.00000000000E+00 0. -1.
      -13    1    4    4    0    0  0.28740160022E+02  0.36033622843E+01 -0.13945799656E+02  0.32147571384E+02  0.00000000000E+00 0.  1.
       13    1    4    4    0    0 -0.77910729164E+02  0.50053647533E+01 -0.24046041828E+02  0.81690559570E+02  0.00000000000E+00 0. -1.
        2    1    1    2  501    0  0.96418432715E+02 -0.49253819628E+02  0.22541060091E+04  0.22567047555E+04  0.00000000000E+00 0. -1.
        1    1    1    2  502    0 -0.31695620465E+02  0.14400506522E+03 -0.44211636968E+04  0.44236218764E+04  0.00000000000E+00 0. -1.
<mgrwt>
<rscale>  0 0.10917831E+03</rscale>
<asrwt>0</asrwt>
<pdfrwt beam="1">  1        2 0.72180810E+00 0.14516907E+03</pdfrwt>
<pdfrwt beam="2">  1        1 0.35693062E+00 0.82110484E+02</pdfrwt>
<totfact> 0.43479784E-02</totfact>
</mgrwt>
</event>
<event>
10   0  0.7688500E-08  0.1164388E+03  0.7546771E-02  0.1269369E+00
        2   -1    0    0  502    0  0.00000000000E+00  0.00000000000E+00  0.29771278419E+04  0.29771278419E+04  0.00000000000E+00 0. -1.
       -2   -1    0    0    0  501  0.00000000000E+00  0.00000000000E+00 -0.44557292137E+02  0.44557292137E+02  0.00000000000E+00 0.  1.
       23    2    1    2    0    0 -0.43130496520E+02 -0.81648798442E+02  0.25139717797E+03  0.28283457262E+03  0.90929029271E+02 0.  0.
       23    2    1    2    0    0  0.88589434083E+01  0.90072459605E+01  0.19221927468E+03  0.21272451542E+03  0.90243329658E+02 0.  0.
      -11    1    4    4    0    0  0.42972526441E+02  0.27207333655E+02  0.89100263434E+02  0.10259499977E+03  0.00000000000E+00 0.  1.
       11    1    4    4    0    0 -0.34113583033E+02 -0.18200087694E+02  0.10311901124E+03  0.11012951566E+03  0.00000000000E+00 0. -1.
      -13    1    3    3    0    0  0.22893434719E+02 -0.26746118962E+02  0.12620610643E+03  0.13102459897E+03  0.00000000000E+00 0.  1.
       13    1    3    3    0    0 -0.66023931239E+02 -0.54902679480E+02  0.12519107153E+03  0.15180997366E+03  0.00000000000E+00 0. -1.
        1    1    1    2  502    0 -0.94522215311E+02 -0.14891175892E+02  0.21605896366E+04  0.21627075100E+04  0.00000000000E+00 0. -1.
       -1    1    1    2    0  501  0.12879376842E+03  0.87532728373E+02  0.32836446052E+03  0.36341853593E+03  0.00000000000E+00 0.  1.
<mgrwt>
<rscale>  0 0.10538187E+03</rscale>
<asrwt>0</asrwt>
<pdfrwt beam="1">  1        2 0.45801967E+00 0.95374897E+02</pdfrwt>
<pdfrwt beam="2">  1       -2 0.68549680E-02 0.11643879E+03</pdfrwt>
<totfact> 0.28581486E+02</totfact>
</mgrwt>
</event>
<event>
10   0  0.7688500E-08  0.1298376E+03  0.7546771E-02  0.1405679E+00
        2   -1    0    0  502    0  0.00000000000E+00  0.00000000000E+00  0.80814842961E+03  0.80814842961E+03  0.00000000000E+00 0. -1.
        1   -1    0    0  501    0  0.00000000000E+00  0.00000000000E+00 -0.35496738271E+03  0.35496738271E+03  0.00000000000E+00 0. -1.
       23    2    1    2    0    0 -0.13037777387E+03  0.18573630754E+02  0.24943188175E+03  0.29593961110E+03  0.89558059985E+02 0.  0.
       23    2    1    2    0    0  0.16839114881E+03 -0.11689031304E+03 -0.18444253764E+03  0.29109425100E+03  0.93262473654E+02 0.  0.
      -11    1    4    4    0    0  0.76737225984E+02 -0.92091083528E+01 -0.33419241342E+02  0.84203653247E+02  0.00000000000E+00 0.  1.
       11    1    4    4    0    0  0.91653922826E+02 -0.10768120469E+03 -0.15102329630E+03  0.20689059775E+03  0.00000000000E+00 0. -1.
      -13    1    3    3    0    0 -0.13380646829E+03  0.23117437188E+02  0.17603160866E+03  0.22231894680E+03  0.00000000000E+00 0. -1.
       13    1    3    3    0    0  0.34286944264E+01 -0.45438064346E+01  0.73400273095E+02  0.73620664306E+02  0.00000000000E+00 0.  1.
        2    1    1    2  501    0  0.15674529478E+02 -0.20819889089E+02 -0.83057765724E+02  0.87050279167E+02  0.00000000000E+00 0. -1.
        1    1    1    2  502    0 -0.53687904421E+02  0.11913657138E+03  0.47124946851E+03  0.48903167106E+03  0.00000000000E+00 0. -1.
<mgrwt>
<rscale>  0 0.58169190E+02</rscale>
<asrwt>0</asrwt>
<pdfrwt beam="1">  1        2 0.12433053E+00 0.12983758E+03</pdfrwt>
<pdfrwt beam="2">  1        1 0.54610367E-01 0.26060673E+02</pdfrwt>
<totfact> 0.35225641E+02</totfact>
</mgrwt>
</event>
<event>
11   0  0.7688500E-08  0.1040285E+03  0.7546771E-02  0.1276535E+00
        1   -1    0    0  501    0  0.00000000000E+00  0.00000000000E+00  0.29395115528E+03  0.29395115528E+03  0.00000000000E+00 0. -1.
       -2   -1    0    0    0  501  0.00000000000E+00  0.00000000000E+00 -0.10220992186E+03  0.10220992186E+03  0.00000000000E+00 0.  1.
       23    2    1    2    0    0 -0.93331194817E+01  0.31769104834E+02  0.10079626803E+02  0.97099388388E+02  0.90721051623E+02 0.  0.
      -24    2    1    2    0    0 -0.44151496355E+02  0.25490140590E+02  0.14392582934E+03  0.17238426566E+03  0.80016178358E+02 0.  0.
       23    2    1    2    0    0  0.53484615837E+02 -0.57259245424E+02  0.37735777285E+02  0.12667742309E+03  0.92108388953E+02 0.  0.
      -11    1    5    5    0    0  0.42190716426E+02 -0.50150034797E+01 -0.20887623634E+02  0.47344478385E+02  0.00000000000E+00 0.  1.
       11    1    5    5    0    0  0.11293899411E+02 -0.52244241944E+02  0.58623400919E+02  0.79332944705E+02  0.00000000000E+00 0. -1.
      -13    1    3    3    0    0  0.23547108365E+02  0.44978080043E+02  0.27364425168E+02  0.57674134250E+02  0.00000000000E+00 0.  1.
       13    1    3    3    0    0 -0.32880227847E+02 -0.13208975209E+02 -0.17284798365E+02  0.39425254138E+02  0.00000000000E+00 0. -1.
        3    1    4    4  502    0 -0.49642700319E+02 -0.11393312290E+02  0.50205525196E+02  0.71517830085E+02  0.00000000000E+00 0. -1.
       -4    1    4    4    0  502  0.54912039636E+01  0.36883452880E+02  0.93720304141E+02  0.10086643558E+03  0.00000000000E+00 0.  1.
<mgrwt>
<rscale>  0 0.10181009E+03</rscale>
<asrwt>0</asrwt>
<pdfrwt beam="1">  1        1 0.45223255E-01 0.10402846E+03</pdfrwt>
<pdfrwt beam="2">  1       -2 0.15724603E-01 0.10402846E+03</pdfrwt>
<totfact> 0.23982483E+03</totfact>
</mgrwt>
</event>
<event>
10   0  0.7688500E-08  0.2665442E+03  0.7546771E-02  0.1143014E+00
        2   -1    0    0  502    0  0.00000000000E+00  0.00000000000E+00  0.21635910988E+04  0.21635910988E+04  0.00000000000E+00 0. -1.
        1   -1    0    0  501    0  0.00000000000E+00  0.00000000000E+00 -0.18990144321E+03  0.18990144321E+03  0.00000000000E+00 0. -1.
       23    2    1    2    0    0  0.14583114520E+01 -0.64805688904E+02  0.19676725363E+03  0.22534563088E+03  0.88664520915E+02 0.  0.
       23    2    1    2    0    0  0.42500459558E+02 -0.53289147528E+01 -0.75454527649E+02  0.12462611747E+03  0.89462824785E+02 0.  0.
      -11    1    3    3    0    0 -0.36299493921E+02 -0.60627903344E+02  0.11160680271E+03  0.13209645845E+03  0.00000000000E+00 0. -1.
       11    1    3    3    0    0  0.37757805373E+02 -0.41777855603E+01  0.85160450920E+02  0.93249172434E+02  0.00000000000E+00 0.  1.
      -13    1    4    4    0    0  0.82043764402E+01  0.35579811698E+02 -0.59628999917E+01  0.36997175156E+02  0.00000000000E+00 0.  1.
       13    1    4    4    0    0  0.34296083118E+02 -0.40908726451E+02 -0.69491627657E+02  0.87628942316E+02  0.00000000000E+00 0. -1.
        2    1    1    2  501    0 -0.76477916230E+01 -0.20482714227E+03  0.97707004483E+02  0.22706674273E+03  0.00000000000E+00 0. -1.
        1    1    1    2  502    0 -0.36310979387E+02  0.27496174593E+03  0.17546699252E+04  0.17764540510E+04  0.00000000000E+00 0. -1.
<mgrwt>
<rscale>  0 0.20818137E+03</rscale>
<asrwt>0</asrwt>
<pdfrwt beam="1">  1        2 0.33286017E+00 0.26654421E+03</pdfrwt>
<pdfrwt beam="2">  1        1 0.29215607E-01 0.16259772E+03</pdfrwt>
<totfact> 0.12951381E+02</totfact>
</mgrwt>
</event>
<event>
10   0  0.7688500E-08  0.4784087E+02  0.7546771E-02  0.1605301E+00
        1   -1    0    0  501    0  0.00000000000E+00  0.00000000000E+00  0.70786359131E+03  0.70786359131E+03  0.00000000000E+00 0. -1.
        2   -1    0    0  502    0  0.00000000000E+00  0.00000000000E+00 -0.22679853826E+03  0.22679853826E+03  0.00000000000E+00 0. -1.
       23    2    1    2    0    0  0.57366135911E+02  0.26570463383E+01  0.40815756152E+03  0.42222150895E+03  0.91544929661E+02 0.  0.
       23    2    1    2    0    0 -0.28949059237E+02  0.22586843184E+02  0.16300805362E+03  0.19031570045E+03  0.91105580375E+02 0.  0.
      -11    1    3    3    0    0  0.59148479070E+02 -0.22406081566E+02  0.14927128715E+03  0.16211875967E+03  0.00000000000E+00 0. -1.
       11    1    3    3    0    0 -0.17823431595E+01  0.25063127905E+02  0.25888627437E+03  0.26010274928E+03  0.00000000000E+00 0.  1.
      -13    1    4    4    0    0  0.14758331692E+02 -0.27658837635E+02  0.45628909630E+02  0.55360789804E+02  0.00000000000E+00 0. -1.
       13    1    4    4    0    0 -0.43707390929E+02  0.50245680818E+02  0.11737914399E+03  0.13495491064E+03  0.00000000000E+00 0.  1.
        2    1    1    2  501    0 -0.58884720839E+01  0.17025690071E+02  0.11250306861E+03  0.11393633605E+03  0.00000000000E+00 0. -1.
        1    1    1    2  502    0 -0.22528604589E+02 -0.42269579593E+02 -0.20260363071E+03  0.20818858413E+03  0.00000000000E+00 0. -1.
<mgrwt>
<rscale>  0 0.29357520E+02</rscale>
<asrwt>0</asrwt>
<pdfrwt beam="1">  1        2 0.34892083E-01 0.47840875E+02</pdfrwt>
<pdfrwt beam="2">  1        1 0.10890209E+00 0.18015222E+02</pdfrwt>
<totfact> 0.61149238E+02</totfact>
</mgrwt>
</event>
<event>
10   0  0.7688500E-08  0.8880502E+02  0.7546771E-02  0.1347577E+00
        2   -1    0    0  502    0  0.00000000000E+00  0.00000000000E+00  0.21405872272E+03  0.21405872272E+03  0.00000000000E+00 0. -1.
        1   -1    0    0  501    0  0.00000000000E+00  0.00000000000E+00 -0.58845708663E+03  0.58845708663E+03  0.00000000000E+00 0. -1.
       23    2    1    2    0    0  0.18801939415E+03 -0.63579047301E+02 -0.53174402756E+02  0.22423512485E+03  0.89779097107E+02 0.  0.
       23    2    1    2    0    0 -0.16731810984E+03 -0.72773664929E+00 -0.11608241219E+03  0.22318563660E+03  0.91328103490E+02 0.  0.
      -11    1    3    3    0    0  0.47604103136E+02  0.20582185981E+02  0.77524218090E+00  0.51868854003E+02  0.00000000000E+00 0.  1.
       11    1    3    3    0    0  0.14041529101E+03 -0.84161233282E+02 -0.53949644937E+02  0.17236627085E+03  0.00000000000E+00 0. -1.
      -13    1    4    4    0    0 -0.61190055994E+02  0.42397610666E+02 -0.60138514871E+02  0.95699641136E+02  0.00000000000E+00 0.  1.
       13    1    4    4    0    0 -0.10612805384E+03 -0.43125347315E+02 -0.55943897319E+02  0.12748599547E+03  0.00000000000E+00 0. -1.
        2    1    1    2  501    0  0.37833043944E+02  0.82703143464E+02 -0.25834378121E+03  0.27388438883E+03  0.00000000000E+00 0. -1.
        1    1    1    2  502    0 -0.58534328258E+02 -0.18396359514E+02  0.53202232251E+02  0.81210659057E+02  0.00000000000E+00 0. -1.
<mgrwt>
<rscale>  0 0.73816111E+02</rscale>
<asrwt>0</asrwt>
<pdfrwt beam="1">  1        2 0.32932111E-01 0.61357099E+02</pdfrwt>
<pdfrwt beam="2">  1        1 0.90531859E-01 0.88805018E+02</pdfrwt>
<totfact> 0.78492339E+02</totfact>
</mgrwt>
</event>
<event>
11   0  0.7688500E-08  0.1721868E+03  0.7546771E-02  0.1207761E+00
        2   -1    0    0  501    0  0.00000000000E+00  0.00000000000E+00  0.20931450047E+04  0.20931450047E+04  0.00000000000E+00 0. -1.
       -1   -1    0    0    0  501  0.00000000000E+00  0.00000000000E+00 -0.95049215864E+02  0.95049215864E+02  0.00000000000E+00 0.  1.
       23    2    1    2    0    0 -0.43482345432E+02 -0.12563724675E+03  0.10072856866E+03  0.18941117791E+03  0.89749192964E+02 0.  0.
       23    2    1    2    0    0  0.50175950913E+02  0.15344339432E+03  0.12509381425E+03  0.22450643040E+03  0.93231827268E+02 0.  0.
       24    2    1    2    0    0 -0.66936054814E+01 -0.27806147565E+02  0.17722734059E+04  0.17742766122E+04  0.79287358873E+02 0.  0.
      -11    1    3    3    0    0 -0.37335097098E+02 -0.12638131923E+03  0.54231059695E+02  0.14250317597E+03  0.00000000000E+00 0.  1.
       11    1    3    3    0    0 -0.61472483336E+01  0.74407247997E+00  0.46497508969E+02  0.46908001942E+02  0.00000000000E+00 0. -1.
      -13    1    4    4    0    0  0.74499860986E+02  0.89481055450E+02  0.64515196687E+02  0.13311385794E+03  0.00000000000E+00 0. -1.
       13    1    4    4    0    0 -0.24323910073E+02  0.63962338865E+02  0.60578617566E+02  0.91392572458E+02  0.00000000000E+00 0.  1.
        2    1    5    5  502    0 -0.46925985942E+01 -0.55039682348E+02  0.13430036247E+04  0.13441391755E+04  0.00000000000E+00 0. -1.
       -1    1    5    5    0  502 -0.20010068872E+01  0.27233534783E+02  0.42926978119E+03  0.43013743674E+03  0.00000000000E+00 0.  1.
<mgrwt>
<rscale>  0 0.14421978E+03</rscale>
<asrwt>0</asrwt>
<pdfrwt beam="1">  1        2 0.32202231E+00 0.17218683E+03</pdfrwt>
<pdfrwt beam="2">  1       -1 0.14622956E-01 0.17218683E+03</pdfrwt>
<totfact> 0.26164628E+02</totfact>
</mgrwt>
</event>
<event>
10   0  0.7688500E-08  0.1368699E+03  0.7546771E-02  0.1316248E+00
        1   -1    0    0  501    0  0.00000000000E+00  0.00000000000E+00  0.19236810737E+03  0.19236810737E+03  0.00000000000E+00 0. -1.
        2   -1    0    0  502    0  0.00000000000E+00  0.00000000000E+00 -0.48676301620E+03  0.48676301620E+03  0.00000000000E+00 0. -1.
       23    2    1    2    0    0  0.13638193093E+03  0.13179633380E+03 -0.38972296560E+02  0.21331409959E+03  0.89519609571E+02 0.  0.
       23    2    1    2    0    0 -0.13488132462E+03 -0.34034338373E+02 -0.96005885970E+02  0.19179796287E+03  0.90653298347E+02 0.  0.
      -11    1    4    4    0    0 -0.10218753724E+03 -0.31503050174E+02 -0.11239686059E+03  0.15513796830E+03  0.00000000000E+00 0. -1.
       11    1    4    4    0    0 -0.32693787376E+02 -0.25312881990E+01  0.16390974620E+02  0.36659994571E+02  0.00000000000E+00 0.  1.
      -13    1    3    3    0    0  0.45607425332E+02  0.76325310173E+02  0.20767286373E+02  0.91306464183E+02  0.00000000000E+00 0.  1.
       13    1    3    3    0    0  0.90774505594E+02  0.55471023629E+02 -0.59739582933E+02  0.12200763541E+03  0.00000000000E+00 0. -1.
        2    1    1    2  501    0  0.28137245623E+02  0.44206589088E+02  0.74576664224E+01  0.52929612680E+02  0.00000000000E+00 0. -1.
        1    1    1    2  502    0 -0.29637851932E+02 -0.14196858452E+03 -0.16687439272E+03  0.22108944842E+03  0.00000000000E+00 0. -1.
<mgrwt>
<rscale>  0 0.84688842E+02</rscale>
<asrwt>0</asrwt>
<pdfrwt beam="1">  1        2 0.74886618E-01 0.13686988E+03</pdfrwt>
<pdfrwt beam="2">  1        1 0.29595093E-01 0.52401595E+02</pdfrwt>
<totfact> 0.13160541E+03</totfact>
</mgrwt>
</event>
<event>
10   0  0.7688500E-08  0.1262863E+03  0.7546771E-02  0.1286200E+00
        2   -1    0    0  502    0  0.00000000000E+00  0.00000000000E+00  0.42644780034E+04  0.42644780034E+04  0.00000000000E+00 0. -1.
        1   -1    0    0  501    0  0.00000000000E+00  0.00000000000E+00 -0.86817957223E+03  0.86817957223E+03  0.00000000000E+00 0. -1.
       23    2    1    2    0    0  0.16369670953E+02 -0.11616725809E+02 -0.37869066603E+02  0.10055535526E+03  0.90963722555E+02 0.  0.
       23    2    1    2    0    0  0.42469314553E+02  0.12683544603E+03 -0.20811307980E+03  0.26347072932E+03  0.90636075467E+02 0.  0.
      -11    1    3    3    0    0 -0.88040256901E+01  0.29987728202E+02  0.95043172003E+01  0.32666600015E+02  0.00000000000E+00 0.  1.
       11    1    3    3    0    0  0.25173696644E+02 -0.41604454011E+02 -0.47373383803E+02  0.67888755249E+02  0.00000000000E+00 0. -1.
      -13    1    4    4    0    0 -0.51420870273E+01 -0.12860639353E+02 -0.21027075026E+02  0.25178859936E+02  0.00000000000E+00 0.  1.
       13    1    4    4    0    0  0.47611401580E+02  0.13969608538E+03 -0.18708600477E+03  0.23829186938E+03  0.00000000000E+00 0. -1.
        2    1    1    2  501    0  0.51790163004E+02 -0.54083169877E+02 -0.55973184133E+03  0.56471846476E+03  0.00000000000E+00 0. -1.
        1    1    1    2  502    0 -0.11062914851E+03 -0.61135550346E+02  0.42020124189E+04  0.42039130263E+04  0.00000000000E+00 0. -1.
<mgrwt>
<rscale>  0 0.97244434E+02</rscale>
<asrwt>0</asrwt>
<pdfrwt beam="1">  1        2 0.65607354E+00 0.12628626E+03</pdfrwt>
<pdfrwt beam="2">  1        1 0.13356609E+00 0.74881308E+02</pdfrwt>
<totfact> 0.96809867E-01</totfact>
</mgrwt>
</event>
<event>
10   0  0.7688500E-08  0.3942690E+03  0.7546771E-02  0.1162096E+00
        1   -1    0    0  501    0  0.00000000000E+00  0.00000000000E+00  0.19543291660E+04  0.19543291660E+04  0.00000000000E+00 0. -1.
        2   -1    0    0  502    0  0.00000000000E+00  0.00000000000E+00 -0.15265921804E+04  0.15265921804E+04  0.00000000000E+00 0. -1.
       23    2    1    2    0    0  0.23796107673E+03  0.41308314529E+02  0.14459821184E+04  0.14688421269E+04  0.91110132961E+02 0.  0.
       23    2    1    2    0    0  0.27625624003E+03  0.15214582755E+03 -0.40049964798E+03  0.51735751558E+03  0.88277788224E+02 0.  0.
      -11    1    3    3    0    0  0.15882991710E+02  0.38789905056E+01  0.23413802125E+02  0.28557347968E+02  0.00000000000E+00 0.  1.
       11    1    3    3    0    0  0.22207808502E+03  0.37429324024E+02  0.14225683162E+04  0.14402847790E+04  0.00000000000E+00 0. -1.
      -13    1    4    4    0    0  0.26941606952E+03  0.15256037781E+03 -0.35373629177E+03  0.47009472610E+03  0.00000000000E+00 0. -1.
       13    1    4    4    0    0  0.68401705102E+01 -0.41455026455E+00 -0.46763356218E+02  0.47262789479E+02  0.00000000000E+00 0.  1.
        2    1    1    2  501    0 -0.87035759353E+02 -0.11332679517E+02  0.38222994751E+03  0.39217774771E+03  0.00000000000E+00 0. -1.
        1    1    1    2  502    0 -0.42718155741E+03 -0.18212146256E+03 -0.99997543234E+03  0.11025439562E+04  0.00000000000E+00 0. -1.
<mgrwt>
<rscale>  0 0.18602465E+03</rscale>
<asrwt>0</asrwt>
<pdfrwt beam="1">  1        2 0.23486034E+00 0.39426901E+03</pdfrwt>
<pdfrwt beam="2">  1        1 0.30066603E+00 0.87770456E+02</pdfrwt>
<totfact> 0.72945056E+00</totfact>
</mgrwt>
</event>
<event>
10   0  0.7688500E-08  0.9245971E+02  0.7546771E-02  0.1362777E+00
        1   -1    0    0  501    0  0.00000000000E+00  0.00000000000E+00  0.89212356153E+03  0.89212356153E+03  0.00000000000E+00 0. -1.
        4   -1    0    0  502    0  0.00000000000E+00  0.00000000000E+00 -0.50320651100E+03  0.50320651100E+03  0.00000000000E+00 0. -1.
       23    2    1    2    0    0 -0.41748055514E+02  0.13288003518E+03 -0.24647043699E+03  0.29730831237E+03  0.90799517632E+02 0.  0.
       23    2    1    2    0    0  0.15392374684E+03 -0.51995890767E+02  0.60243479825E+03  0.63062687479E+03  0.91468445728E+02 0.  0.
      -11    1    4    4    0    0  0.22056155660E+02 -0.44634786423E+02  0.23392831680E+03  0.23916771430E+03  0.00000000000E+00 0.  1.
       11    1    4    4    0    0  0.13186759118E+03 -0.73611043436E+01  0.36850648145E+03  0.39145916049E+03  0.00000000000E+00 0. -1.
      -13    1    3    3    0    0 -0.53332478263E+02  0.10684400200E+03 -0.24002804009E+03  0.26809224911E+03  0.00000000000E+00 0. -1.
       13    1    3    3    0    0  0.11584422749E+02  0.26036033186E+02 -0.64423968958E+01  0.29216063258E+02  0.00000000000E+00 0.  1.
        2    1    1    2  501    0 -0.50091063130E+02 -0.13261007780E+02  0.23755558220E+03  0.24314115975E+03  0.00000000000E+00 0. -1.
        3    1    1    2  502    0 -0.62084628193E+02 -0.67623136638E+02 -0.20460289292E+03  0.22425372563E+03  0.00000000000E+00 0. -1.
<mgrwt>
<rscale>  0 0.69216732E+02</rscale>
<asrwt>0</asrwt>
<pdfrwt beam="1">  1        4 0.77416386E-01 0.92459714E+02</pdfrwt>
<pdfrwt beam="2">  1        1 0.13724978E+00 0.51816686E+02</pdfrwt>
<totfact> 0.14515803E+01</totfact>
</mgrwt>
</event>
<event>
10   0  0.7688500E-08  0.1073171E+03  0.7546771E-02  0.1308928E+00
        2   -1    0    0  502    0  0.00000000000E+00  0.00000000000E+00  0.86267470126E+03  0.86267470126E+03  0.00000000000E+00 0. -1.
       -2   -1    0    0    0  501  0.00000000000E+00  0.00000000000E+00 -0.80005741194E+03  0.80005741194E+03  0.00000000000E+00 0.  1.
       23    2    1    2    0    0  0.16447836821E+03  0.30996893103E+02 -0.88919478877E+02  0.20703451278E+03  0.83322714589E+02 0.  0.
       23    2    1    2    0    0 -0.12713025155E+03  0.12830957521E+02 -0.43734027740E+03  0.46467281041E+03  0.91255510360E+02 0.  0.
      -11    1    4    4    0    0 -0.13987592665E+03  0.72728436929E+01 -0.36384028376E+03  0.38986910777E+03  0.00000000000E+00 0.  1.
       11    1    4    4    0    0  0.12745675101E+02  0.55581138278E+01 -0.73499993643E+02  0.74803702640E+02  0.00000000000E+00 0. -1.
      -13    1    3    3    0    0  0.68471474492E+02  0.40781390289E+01 -0.82255924555E+02  0.10710280651E+03  0.00000000000E+00 0. -1.
       13    1    3    3    0    0  0.96006893718E+02  0.26918754074E+02 -0.66635543215E+01  0.99931706272E+02  0.00000000000E+00 0.  1.
        1    1    1    2  502    0 -0.51791218369E+01 -0.10757382904E+03  0.77979205811E+03  0.78719413482E+03  0.00000000000E+00 0. -1.
       -1    1    1    2    0  501 -0.32168994823E+02  0.63745978416E+02 -0.19091501251E+03  0.20383065519E+03  0.00000000000E+00 0.  1.
<mgrwt>
<rscale>  0 0.87537250E+02</rscale>
<asrwt>0</asrwt>
<pdfrwt beam="1">  1        2 0.13271918E+00 0.10731714E+03</pdfrwt>
<pdfrwt beam="2">  1       -2 0.12308576E+00 0.71403039E+02</pdfrwt>
<totfact> 0.18617022E+01</totfact>
</mgrwt>
</event>
<event>
11   0  0.7688500E-08  0.3990223E+03  0.7546771E-02  0.1044119E+00
        1   -1    0    0  501    0  0.00000000000E+00  0.00000000000E+00  0.24314798538E+04  0.24314798538E+04  0.00000000000E+00 0. -1.
       -1   -1    0    0    0  501  0.00000000000E+00  0.00000000000E+00 -0.16370566575E+02  0.16370566575E+02  0.00000000000E+00 0.  1.
       23    2    1    2    0    0 -0.18551624941E+02  0.53731077770E+02  0.48629616763E+03  0.49845676937E+03  0.93509340553E+02 0.  0.
       23    2    1    2    0    0  0.71042861080E+01 -0.12688203226E+03  0.13503664267E+04  0.13594056072E+04  0.91348767783E+02 0.  0.
       23    2    1    2    0    0  0.11447338833E+02  0.73150954493E+02  0.57844669288E+03  0.58998804385E+03  0.89460671108E+02 0.  0.
      -11    1    4    4    0    0 -0.32972770956E+02 -0.10264840873E+03  0.83897387507E+03  0.84587295884E+03  0.00000000000E+00 0.  1.
       11    1    4    4    0    0  0.40077057064E+02 -0.24233623528E+02  0.51139255165E+03  0.51353264832E+03  0.00000000000E+00 0. -1.
      -13    1    5    5    0    0  0.18112463481E+02 -0.12680894303E+02  0.51361108802E+02  0.55918064264E+02  0.00000000000E+00 0.  1.
       13    1    5    5    0    0 -0.66651246482E+01  0.85831848796E+02  0.52708558408E+03  0.53406997959E+03  0.00000000000E+00 0. -1.
        2    1    3    3  502    0 -0.17569070407E+02  0.74132803742E+02  0.45324511611E+03  0.45960361193E+03  0.00000000000E+00 0. -1.
       -2    1    3    3    0  502 -0.98255453389E+00 -0.20401725972E+02  0.33051051526E+02  0.38853157439E+02  0.00000000000E+00 0.  1.
<mgrwt>
<rscale>  0 0.39902232E+03</rscale>
<asrwt>0</asrwt>
<pdfrwt beam="1">  1        1 0.37407382E+00 0.39902232E+03</pdfrwt>
<pdfrwt beam="2">  1       -1 0.25185487E-02 0.39902232E+03</pdfrwt>
<totfact> 0.84828037E+02</totfact>
</mgrwt>
</event>
<event>
10   0  0.7688500E-08  0.3259408E+03  0.7546771E-02  0.1145370E+00
        2   -1    0    0  502    0  0.00000000000E+00  0.00000000000E+00  0.68520508968E+03  0.68520508968E+03  0.00000000000E+00 0. -1.
       -2   -1    0    0    0  501  0.00000000000E+00  0.00000000000E+00 -0.20605742604E+04  0.20605742604E+04  0.00000000000E+00 0.  1.
       23    2    1    2    0    0 -0.92758490625E+02  0.23964550165E+03 -0.17797745713E+03  0.32697933773E+03  0.95944817549E+02 0.  0.
       23    2    1    2    0    0  0.38420054148E+02  0.30241820580E+00 -0.14573260949E+01  0.99941477056E+02  0.92249569209E+02 0.  0.
      -11    1    4    4    0    0  0.20874628926E+02 -0.45864325020E+02  0.20113621188E+01  0.50431458633E+02  0.00000000000E+00 0.  1.
       11    1    4    4    0    0  0.17545425222E+02  0.46166743225E+02 -0.34686882137E+01  0.49510018422E+02  0.00000000000E+00 0. -1.
      -13    1    3    3    0    0 -0.93204455817E+01  0.37277887664E+02  0.85798595348E+01  0.39371634513E+02  0.00000000000E+00 0.  1.
       13    1    3    3    0    0 -0.83438045043E+02  0.20236761398E+03 -0.18655731667E+03  0.28760770322E+03  0.00000000000E+00 0. -1.
        1    1    1    2  502    0  0.96636156216E+02  0.10552663579E+03  0.53472935957E+03  0.55354304759E+03  0.00000000000E+00 0. -1.
       -1    1    1    2    0  501 -0.42297719739E+02 -0.34547455564E+03 -0.17306637470E+04  0.17653154876E+04  0.00000000000E+00 0.  1.
<mgrwt>
<rscale>  0 0.20526615E+03</rscale>
<asrwt>0</asrwt>
<pdfrwt beam="1">  1        2 0.10541617E+00 0.12926947E+03</pdfrwt>
<pdfrwt beam="2">  1       -2 0.31701142E+00 0.32594079E+03</pdfrwt>
<totfact> 0.12692143E+00</totfact>
</mgrwt>
</event>
<event>
11   0  0.7688500E-08  0.2110252E+03  0.7546771E-02  0.1157011E+00
        2   -1    0    0  501    0  0.00000000000E+00  0.00000000000E+00  0.85422372264E+02  0.85422372264E+02  0.00000000000E+00 0. -1.
       -1   -1    0    0    0  501  0.00000000000E+00  0.00000000000E+00 -0.13825697383E+04  0.13825697383E+04  0.00000000000E+00 0.  1.
       23    2    1    2    0    0  0.14603321264E+03  0.11459427209E+03 -0.15279850984E+03  0.25743185089E+03  0.92012101657E+02 0.  0.
       23    2    1    2    0    0 -0.85106577082E+02 -0.21587733157E+03 -0.81891244197E+03  0.85490608694E+03  0.80004238142E+02 0.  0.
       24    2    1    2    0    0 -0.60926635553E+02  0.10128305948E+03 -0.32543641422E+03  0.35565417274E+03  0.81306320974E+02 0.  0.
      -11    1    3    3    0    0  0.13078114202E+03  0.13076955493E+03 -0.13589313618E+03  0.22950234871E+03  0.00000000000E+00 0. -1.
       11    1    3    3    0    0  0.15252070619E+02 -0.16175282837E+02 -0.16905373661E+02  0.27929502173E+02  0.00000000000E+00 0.  1.
      -13    1    4    4    0    0 -0.99611470111E+02 -0.16780255612E+03 -0.64149261517E+03  0.67051690369E+03  0.00000000000E+00 0.  1.
       13    1    4    4    0    0  0.14504893029E+02 -0.48074775451E+02 -0.17741982680E+03  0.18438918325E+03  0.00000000000E+00 0. -1.
        4    1    5    5  502    0 -0.51250813828E+02  0.82628814818E+02 -0.14866802339E+03  0.17764106545E+03  0.00000000000E+00 0. -1.
       -3    1    5    5    0  502 -0.96758217254E+01  0.18654244659E+02 -0.17676839083E+03  0.17801310729E+03  0.00000000000E+00 0.  1.
<mgrwt>
<rscale>  0 0.19161704E+03</rscale>
<asrwt>0</asrwt>
<pdfrwt beam="1">  1        2 0.13141903E-01 0.21102520E+03</pdfrwt>
<pdfrwt beam="2">  1       -1 0.21270304E+00 0.21102520E+03</pdfrwt>
<totfact> 0.72655341E+01</totfact>
</mgrwt>
</event>
<event>
11   0  0.7688500E-08  0.1660050E+03  0.7546771E-02  0.1203036E+00
        1   -1    0    0  501    0  0.00000000000E+00  0.00000000000E+00  0.13074820377E+04  0.13074820377E+04  0.00000000000E+00 0. -1.
       -2   -1    0    0    0  501  0.00000000000E+00  0.00000000000E+00 -0.47165093698E+02  0.47165093698E+02  0.00000000000E+00 0.  1.
      -24    2    1    2    0    0 -0.21180886943E+02 -0.63721371528E+02  0.72562687945E+03  0.73313966642E+03  0.80314127820E+02 0.  0.
       23    2    1    2    0    0  0.15313903162E+02  0.13844404478E+03  0.24640930848E+03  0.30989144216E+03  0.12615026536E+03 0.  0.
       23    2    1    2    0    0  0.58669837805E+01 -0.74722673255E+02  0.28828075603E+03  0.31161602279E+03  0.91546993186E+02 0.  0.
      -11    1    5    5    0    0 -0.41509853272E+02 -0.37956164708E+02  0.16889461868E+03  0.17801441115E+03  0.00000000000E+00 0. -1.
       11    1    5    5    0    0  0.47376837053E+02 -0.36766508547E+02  0.11938613735E+03  0.13360161164E+03  0.00000000000E+00 0.  1.
      -13    1    4    4    0    0 -0.22857678297E+02  0.40937418138E+02  0.17974485570E+03  0.18575941110E+03  0.00000000000E+00 0. -1.
       13    1    4    4    0    0  0.38171581460E+02  0.97506626645E+02  0.66664452780E+02  0.12413203106E+03  0.00000000000E+00 0.  1.
        1    1    3    3  502    0  0.49187007932E+01 -0.58567856235E+02  0.65560646024E+03  0.65823568584E+03  0.00000000000E+00 0. -1.
       -2    1    3    3    0  502 -0.26099587736E+02 -0.51535152928E+01  0.70020419217E+02  0.74903980583E+02  0.00000000000E+00 0.  1.
<mgrwt>
<rscale>  0 0.14793275E+03</rscale>
<asrwt>0</asrwt>
<pdfrwt beam="1">  1        1 0.20115108E+00 0.16600505E+03</pdfrwt>
<pdfrwt beam="2">  1       -2 0.72561683E-02 0.16600505E+03</pdfrwt>
<totfact> 0.94090554E+02</totfact>
</mgrwt>
</event>
<event>
11   0  0.7688500E-08  0.2031209E+03  0.7546771E-02  0.1169550E+00
        4   -1    0    0  501    0  0.00000000000E+00  0.00000000000E+00  0.64076601674E+03  0.64076601674E+03  0.00000000000E+00 0. -1.
       -3   -1    0    0    0  501  0.00000000000E+00  0.00000000000E+00 -0.29657078330E+03  0.29657078330E+03  0.00000000000E+00 0.  1.
       23    2    1    2    0    0  0.68955212223E+02 -0.31056517668E+02  0.27036700655E+02  0.12196302964E+03  0.91785994754E+02 0.  0.
       23    2    1    2    0    0 -0.93003667367E+01  0.20474949966E+03 -0.17475240334E+03  0.28430820762E+03  0.91015932765E+02 0.  0.
       24    2    1    2    0    0 -0.59654845486E+02 -0.17369298199E+03  0.49191093612E+03  0.53106556279E+03  0.79538106090E+02 0.  0.
      -11    1    3    3    0    0 -0.19634590667E+02 -0.30139876476E+01  0.20906375471E+02  0.28838824656E+02  0.00000000000E+00 0.  1.
       11    1    3    3    0    0  0.88589802890E+02 -0.28042530020E+02  0.61303251837E+01  0.93124204979E+02  0.00000000000E+00 0. -1.
      -13    1    4    4    0    0  0.77626015891E+01  0.33964240483E+02 -0.82268094537E+02  0.89341295008E+02  0.00000000000E+00 0.  1.
       13    1    4    4    0    0 -0.17062968326E+02  0.17078525918E+03 -0.92484308801E+02  0.19496691262E+03  0.00000000000E+00 0. -1.
        2    1    5    5  502    0 -0.53785366554E+02 -0.10162986240E+03  0.38649911648E+03  0.40324069937E+03  0.00000000000E+00 0. -1.
       -1    1    5    5    0  502 -0.58694789324E+01 -0.72063119591E+02  0.10541181964E+03  0.12782486341E+03  0.00000000000E+00 0.  1.
<mgrwt>
<rscale>  0 0.17820718E+03</rscale>
<asrwt>0</asrwt>
<pdfrwt beam="1">  1        4 0.98579387E-01 0.20312087E+03</pdfrwt>
<pdfrwt beam="2">  1       -3 0.45626274E-01 0.20312087E+03</pdfrwt>
<totfact> 0.88284855E+00</totfact>
</mgrwt>
</event>
<event>
11   0  0.7688500E-08  0.1086017E+03  0.7546771E-02  0.1265218E+00
        2   -1    0    0  501    0  0.00000000000E+00  0.00000000000E+00  0.28439422664E+03  0.28439422664E+03  0.00000000000E+00 0. -1.
       -1   -1    0    0    0  501  0.00000000000E+00  0.00000000000E+00 -0.24769872079E+03  0.24769872079E+03  0.00000000000E+00 0.  1.
       23    2    1    2    0    0  0.10311159283E+02 -0.42022050128E+02  0.20041609934E+03  0.22456711934E+03  0.91605706765E+02 0.  0.
       24    2    1    2    0    0  0.56708873327E+02  0.37051341879E+02 -0.16234035256E+03  0.19444396569E+03  0.82857513073E+02 0.  0.
       23    2    1    2    0    0 -0.67020032610E+02  0.49707082492E+01 -0.13802409270E+01  0.11308186240E+03  0.90935195758E+02 0.  0.
      -11    1    5    5    0    0 -0.75001378549E+02 -0.20845696251E+02 -0.19869038971E+02  0.80340080570E+02  0.00000000000E+00 0. -1.
       11    1    5    5    0    0  0.79813459390E+01  0.25816404501E+02  0.18488798044E+02  0.32741781831E+02  0.00000000000E+00 0.  1.
      -13    1    3    3    0    0  0.30128948383E+02  0.96466087707E+01  0.24097175121E+02  0.39767882019E+02  0.00000000000E+00 0.  1.
       13    1    3    3    0    0 -0.19817789101E+02 -0.51668658899E+02  0.17631892422E+03  0.18479923732E+03  0.00000000000E+00 0. -1.
        4    1    4    4  502    0  0.22558064622E+02 -0.82724091314E+01 -0.17147615775E+01  0.24088159739E+02  0.00000000000E+00 0. -1.
       -3    1    4    4    0  502  0.34150808705E+02  0.45323751010E+02 -0.16062559098E+03  0.17035580595E+03  0.00000000000E+00 0.  1.
<mgrwt>
<rscale>  0 0.10752756E+03</rscale>
<asrwt>0</asrwt>
<pdfrwt beam="1">  1        2 0.43752958E-01 0.10860171E+03</pdfrwt>
<pdfrwt beam="2">  1       -1 0.38107496E-01 0.10860171E+03</pdfrwt>
<totfact> 0.88330943E+02</totfact>
</mgrwt>
</event>
<event>
10   0  0.7688500E-08  0.3739378E+02  0.7546771E-02  0.1558204E+00
        2   -1    0    0  502    0  0.00000000000E+00  0.00000000000E+00  0.48163277974E+03  0.48163277974E+03  0.00000000000E+00 0. -1.
        1   -1    0    0  501    0  0.00000000000E+00  0.00000000000E+00 -0.98912719119E+02  0.98912719119E+02  0.00000000000E+00 0. -1.
       23    2    1    2    0    0  0.12393588680E+01  0.30680709649E+02 -0.48716300770E+02  0.10769099631E+03  0.91001267955E+02 0.  0.
       23    2    1    2    0    0  0.90319776951E+01  0.62183488243E+01  0.37012899599E+03  0.38014627622E+03  0.85996936967E+02 0.  0.
      -11    1    3    3    0    0 -0.37223701378E+02 -0.10010409588E+02 -0.10671269060E+02  0.39996102657E+02  0.00000000000E+00 0.  1.
       11    1    3    3    0    0  0.38463060246E+02  0.40691119237E+02 -0.38045031710E+02  0.67694893648E+02  0.00000000000E+00 0. -1.
      -13    1    4    4    0    0  0.14301635335E+02  0.36678560295E+02  0.31045142823E+03  0.31293760216E+03  0.00000000000E+00 0.  1.
       13    1    4    4    0    0 -0.52696576400E+01 -0.30460211471E+02  0.59677567766E+02  0.67208674060E+02  0.00000000000E+00 0. -1.
        2    1    1    2  501    0 -0.34188488284E+02 -0.17479203420E+02  0.38512698885E+02  0.54383851084E+02  0.00000000000E+00 0. -1.
        1    1    1    2  502    0  0.23917151721E+02 -0.19419855053E+02  0.22794666512E+02  0.38324375248E+02  0.00000000000E+00 0. -1.
<mgrwt>
<rscale>  0 0.33941783E+02</rscale>
<asrwt>0</asrwt>
<pdfrwt beam="1">  1        2 0.74097351E-01 0.37393780E+02</pdfrwt>
<pdfrwt beam="2">  1        1 0.15217341E-01 0.30808455E+02</pdfrwt>
<totfact> 0.29608658E+03</totfact>
</mgrwt>
</event>
<event>
11   0  0.7688500E-08  0.3326148E+03  0.7546771E-02  0.1121803E+00
        3   -1    0    0  501    0  0.00000000000E+00  0.00000000000E+00  0.11148410501E+03  0.11148410501E+03  0.00000000000E+00 0. -1.
       -4   -1    0    0    0  501  0.00000000000E+00  0.00000000000E+00 -0.13424062497E+04  0.13424062497E+04  0.00000000000E+00 0.  1.
       23    2    1    2    0    0 -0.73670374252E+02 -0.27313467994E+03 -0.59967790560E+03  0.66914239728E+03  0.90044877403E+02 0.  0.
      -24    2    1    2    0    0 -0.51069494128E+01 -0.64471721946E+02 -0.23570238228E+03  0.25081492658E+03  0.56301247951E+02 0.  0.
       23    2    1    2    0    0  0.78777323665E+02  0.33760640188E+03 -0.39554185679E+03  0.53393303082E+03  0.91908495894E+02 0.  0.
      -11    1    3    3    0    0 -0.49965333465E+02 -0.12328597079E+03 -0.18722145381E+03  0.22966897463E+03  0.00000000000E+00 0. -1.
       11    1    3    3    0    0 -0.23705040787E+02 -0.14984870915E+03 -0.41245645178E+03  0.43947342264E+03  0.00000000000E+00 0.  1.
      -13    1    5    5    0    0  0.59413011789E+02  0.79381905034E+02 -0.12300733780E+03  0.15799429727E+03  0.00000000000E+00 0.  1.
       13    1    5    5    0    0  0.19364311875E+02  0.25822449685E+03 -0.27253451898E+03  0.37593873355E+03  0.00000000000E+00 0. -1.
        1    1    4    4  502    0 -0.26082317471E+02 -0.58244957481E+02 -0.17913752858E+03  0.19016576060E+03  0.00000000000E+00 0. -1.
       -2    1    4    4    0  502  0.20975368058E+02 -0.62267644646E+01 -0.56564853698E+02  0.60649165986E+02  0.00000000000E+00 0.  1.
<mgrwt>
<rscale>  0 0.23700670E+03</rscale>
<asrwt>0</asrwt>
<pdfrwt beam="1">  1        3 0.17151401E-01 0.33261475E+03</pdfrwt>
<pdfrwt beam="2">  1       -4 0.20652404E+00 0.33261475E+03</pdfrwt>
<totfact> 0.82171652E+00</totfact>
</mgrwt>
</event>
<event>
11   0  0.7688500E-08  0.1065686E+03  0.7546771E-02  0.1268208E+00
       -1   -1    0    0    0  501  0.00000000000E+00  0.00000000000E+00  0.97211113921E+01  0.97211113921E+01  0.00000000000E+00 0.  1.
        2   -1    0    0  501    0  0.00000000000E+00  0.00000000000E+00 -0.40424694964E+04  0.40424694964E+04  0.00000000000E+00 0. -1.
       23    2    1    2    0    0  0.50399474849E+02  0.15597463310E+02 -0.14637337342E+04  0.14675177615E+04  0.91151234830E+02 0.  0.
       24    2    1    2    0    0 -0.17010820993E+02 -0.68395539218E+02 -0.42559022470E+03  0.43876173233E+03  0.80109303973E+02 0.  0.
       23    2    1    2    0    0 -0.33388653856E+02  0.52798075908E+02 -0.21434244261E+04  0.21459111140E+04  0.82242323461E+02 0.  0.
      -11    1    3    3    0    0  0.15672533626E+02  0.49210918362E+02 -0.98434016682E+03  0.98569412436E+03  0.00000000000E+00 0.  1.
       11    1    3    3    0    0  0.34726941222E+02 -0.33613455052E+02 -0.47939356740E+03  0.48182363711E+03  0.00000000000E+00 0. -1.
      -13    1    5    5    0    0 -0.59279570983E+02  0.46642097344E+02 -0.14263944973E+04  0.14283874876E+04  0.00000000000E+00 0. -1.
       13    1    5    5    0    0  0.25890917127E+02  0.61559785637E+01 -0.71702992883E+03  0.71752362644E+03  0.00000000000E+00 0.  1.
        2    1    4    4  502    0  0.23417761750E+02 -0.36288423723E+02 -0.29814347032E+03  0.30125532386E+03  0.00000000000E+00 0. -1.
       -1    1    4    4    0  502 -0.40428582743E+02 -0.32107115495E+02 -0.12744675439E+03  0.13750640847E+03  0.00000000000E+00 0.  1.
<mgrwt>
<rscale>  0 0.10597642E+03</rscale>
<asrwt>0</asrwt>
<pdfrwt beam="1">  1        2 0.62191838E+00 0.10656863E+03</pdfrwt>
<pdfrwt beam="2">  1       -1 0.14955556E-02 0.10656863E+03</pdfrwt>
<totfact> 0.53302449E+02</totfact>
</mgrwt>
</event>
<event>
10   0  0.7688500E-08  0.5044851E+03  0.7546771E-02  0.1104460E+00
       -2   -1    0    0    0  501  0.00000000000E+00  0.00000000000E+00  0.10539931876E+04  0.10539931876E+04  0.00000000000E+00 0.  1.
        2   -1    0    0  502    0  0.00000000000E+00  0.00000000000E+00 -0.18544970708E+04  0.18544970708E+04  0.00000000000E+00 0. -1.
       23    2    1    2    0    0 -0.18137751640E+03 -0.31246809919E+03  0.13101136444E+03  0.39454034071E+03  0.89241169671E+02 0.  0.
       23    2    1    2    0    0 -0.12319347795E+03 -0.95154194955E+02  0.69039353589E+03  0.71369050942E+03  0.92086671226E+02 0.  0.
      -11    1    3    3    0    0 -0.76736406965E+02 -0.62675390350E+02  0.16246266533E+02  0.10040230020E+03  0.00000000000E+00 0.  1.
       11    1    3    3    0    0 -0.10464110943E+03 -0.24979270884E+03  0.11476509791E+03  0.29413804050E+03  0.00000000000E+00 0. -1.
      -13    1    4    4    0    0 -0.12738204660E+03 -0.70706483689E+02  0.47412252420E+03  0.49600177478E+03  0.00000000000E+00 0.  1.
       13    1    4    4    0    0  0.41885686514E+01 -0.24447711266E+02  0.21627101169E+03  0.21768873464E+03  0.00000000000E+00 0. -1.
        1    1    1    2  502    0  0.41873730297E+03  0.32886939993E+03 -0.15600261338E+04  0.16483863471E+04  0.00000000000E+00 0. -1.
       -1    1    1    2    0  501 -0.11416630862E+03  0.78752894214E+02 -0.61882649681E+02  0.15187306115E+03  0.00000000000E+00 0.  1.
<mgrwt>
<rscale>  0 0.26451645E+03</rscale>
<asrwt>0</asrwt>
<pdfrwt beam="1">  1        2 0.28530724E+00 0.50448514E+03</pdfrwt>
<pdfrwt beam="2">  1       -2 0.16215280E+00 0.13869378E+03</pdfrwt>
<totfact> 0.22893196E+00</totfact>
</mgrwt>
</event>
<event>
11   0  0.7688500E-08  0.1175198E+03  0.7546771E-02  0.1258322E+00
        3   -1    0    0  501    0  0.00000000000E+00  0.00000000000E+00  0.22370652656E+03  0.22370652656E+03  0.00000000000E+00 0. -1.
       -3   -1    0    0    0  501  0.00000000000E+00  0.00000000000E+00 -0.12489129775E+03  0.12489129775E+03  0.00000000000E+00 0.  1.
       23    2    1    2    0    0  0.38432676996E+02 -0.54729377304E+02 -0.11276453007E+02  0.12137298200E+03  0.10065717543E+03 0.  0.
       23    2    1    2    0    0 -0.43562865426E+02  0.29391545348E+02  0.63482783049E+02  0.12204801067E+03  0.90022591519E+02 0.  0.
       23    2    1    2    0    0  0.51301884299E+01  0.25337831956E+02  0.46608898770E+02  0.10517683164E+03  0.90672222365E+02 0.  0.
      -11    1    3    3    0    0 -0.43054212062E+01 -0.72319593439E+02  0.43713339419E+01  0.72579396576E+02  0.00000000000E+00 0.  1.
       11    1    3    3    0    0  0.42738098203E+02  0.17590216135E+02 -0.15647786949E+02  0.48793585419E+02  0.00000000000E+00 0. -1.
      -13    1    4    4    0    0  0.22785144085E+02 -0.97194016957E+01  0.27585421804E+02  0.37075396915E+02  0.00000000000E+00 0.  1.
       13    1    4    4    0    0 -0.66348009511E+02  0.39110947043E+02  0.35897361245E+02  0.84972613760E+02  0.00000000000E+00 0. -1.
        4    1    5    5  502    0  0.13209821122E+02  0.44324482142E+02  0.63466961890E+02  0.78531613652E+02  0.00000000000E+00 0. -1.
       -4    1    5    5    0  502 -0.80796326925E+01 -0.18986650186E+02 -0.16858063120E+02  0.26645217993E+02  0.00000000000E+00 0.  1.
<mgrwt>
<rscale>  0 0.11122304E+03</rscale>
<asrwt>0</asrwt>
<pdfrwt beam="1">  1        3 0.34416389E-01 0.11751984E+03</pdfrwt>
<pdfrwt beam="2">  1       -3 0.19214046E-01 0.11751984E+03</pdfrwt>
<totfact> 0.45407090E+02</totfact>
</mgrwt>
</event>
<event>
10   0  0.7688500E-08  0.1097872E+03  0.7546771E-02  0.1437859E+00
        2   -1    0    0  502    0  0.00000000000E+00  0.00000000000E+00  0.17117916644E+04  0.17117916644E+04  0.00000000000E+00 0. -1.
        1   -1    0    0  501    0  0.00000000000E+00  0.00000000000E+00 -0.36107767108E+03  0.36107767108E+03  0.00000000000E+00 0. -1.
       23    2    1    2    0    0  0.10185804670E+03  0.12938185028E+02 -0.11324902564E+03  0.18151800648E+03  0.97882514062E+02 0.  0.
       23    2    1    2    0    0  0.14057272783E+02  0.48689677971E+00  0.11910188708E+03  0.14991884244E+03  0.89958633976E+02 0.  0.
      -11    1    4    4    0    0  0.21142123086E+00 -0.43422721784E+02  0.71799570695E+02  0.83909211759E+02  0.00000000000E+00 0. -1.
       11    1    4    4    0    0  0.13845851552E+02  0.43909618564E+02  0.47302316386E+02  0.66009630685E+02  0.00000000000E+00 0.  1.
      -13    1    3    3    0    0  0.43545629971E+02  0.30423921301E+02 -0.20207630702E+00  0.53121348927E+02  0.00000000000E+00 0.  1.
       13    1    3    3    0    0  0.58312416725E+02 -0.17485736273E+02 -0.11304694933E+03  0.12839665755E+03  0.00000000000E+00 0. -1.
        2    1    1    2  501    0 -0.64381191976E+01 -0.23201094116E+02 -0.19558933581E+03  0.19706579721E+03  0.00000000000E+00 0. -1.
        1    1    1    2  502    0 -0.10947720028E+03  0.97760123085E+01  0.15404504677E+04  0.15443666894E+04  0.00000000000E+00 0. -1.
<mgrwt>
<rscale>  0 0.51414333E+02</rscale>
<asrwt>0</asrwt>
<pdfrwt beam="1">  1        2 0.26335256E+00 0.10978720E+03</pdfrwt>
<pdfrwt beam="2">  1        1 0.55550411E-01 0.24077794E+02</pdfrwt>
<totfact> 0.10978657E+02</totfact>
</mgrwt>
</event>
<event>
10   0  0.7688500E-08  0.8715687E+02  0.7546771E-02  0.1392636E+00
       -1   -1    0    0    0  501  0.00000000000E+00  0.00000000000E+00  0.35399916935E+03  0.35399916935E+03  0.00000000000E+00 0.  1.
        1   -1    0    0  502    0  0.00000000000E+00  0.00000000000E+00 -0.31631575152E+04  0.31631575152E+04  0.00000000000E+00 0. -1.
       23    2    1    2    0    0 -0.30246275235E+02  0.35815955214E+02 -0.58712383940E+03  0.59606683435E+03  0.91562265177E+02 0.  0.
       23    2    1    2    0    0  0.12961394803E+03 -0.22725577253E+02 -0.16765923896E+04  0.16847086923E+04  0.99825396489E+02 0.  0.
      -11    1    4    4    0    0 -0.36989255826E+01  0.18211178566E+00 -0.12414424784E+01  0.39059434962E+01  0.00000000000E+00 0.  1.
       11    1    4    4    0    0  0.13331287362E+03 -0.22907689039E+02 -0.16753509471E+04  0.16808027488E+04  0.00000000000E+00 0. -1.
      -13    1    3    3    0    0  0.18774720995E+02  0.38617022192E+02 -0.41067282782E+03  0.41291153539E+03  0.00000000000E+00 0.  1.
       13    1    3    3    0    0 -0.49020996230E+02 -0.28010669777E+01 -0.17645101159E+03  0.18315529896E+03  0.00000000000E+00 0. -1.
        2    1    1    2  502    0 -0.72154850773E+02 -0.46451063771E+02 -0.88749271901E+03  0.89163184674E+03  0.00000000000E+00 0. -1.
       -2    1    1    2    0  501 -0.27212822025E+02  0.33360685810E+02  0.34205060220E+03  0.34474931110E+03  0.00000000000E+00 0.  1.
<mgrwt>
<rscale>  0 0.61255823E+02</rscale>
<asrwt>0</asrwt>
<pdfrwt beam="1">  1        1 0.48663962E+00 0.87156870E+02</pdfrwt>
<pdfrwt beam="2">  1       -1 0.54461411E-01 0.43051981E+02</pdfrwt>
<totfact> 0.24375250E+00</totfact>
</mgrwt>
</event>
<event>
11   0  0.7688500E-08  0.1187926E+03  0.7546771E-02  0.1251851E+00
        2   -1    0    0  501    0  0.00000000000E+00  0.00000000000E+00  0.34827385502E+03  0.34827385502E+03  0.00000000000E+00 0. -1.
       -2   -1    0    0    0  501  0.00000000000E+00  0.00000000000E+00 -0.89361872618E+02  0.89361872618E+02  0.00000000000E+00 0.  1.
       23    2    1    2    0    0  0.36797152152E+02  0.66790658538E+02  0.32628465455E+02  0.12318609634E+03  0.91077851862E+02 0.  0.
       23    2    1    2    0    0 -0.26742854765E+02 -0.14276187850E+02  0.12174611886E+03  0.15679641932E+03  0.94042595853E+02 0.  0.
       23    2    1    2    0    0 -0.10054297388E+02 -0.52514470689E+02  0.10453739809E+03  0.15765321197E+03  0.10520270490E+03 0.  0.
      -11    1    3    3    0    0  0.13457144354E+02 -0.20714245754E+02 -0.48500013584E+01  0.25173343530E+02  0.00000000000E+00 0. -1.
       11    1    3    3    0    0  0.23340007799E+02  0.87504904292E+02  0.37478466813E+02  0.98012752813E+02  0.00000000000E+00 0.  1.
      -13    1    4    4    0    0 -0.29980875444E+01  0.31351237184E+02  0.88171472725E+01  0.32705208880E+02  0.00000000000E+00 0.  1.
       13    1    4    4    0    0 -0.23744767220E+02 -0.45627425033E+02  0.11292897159E+03  0.12409121044E+03  0.00000000000E+00 0. -1.
        4    1    5    5  502    0  0.66294447422E+01 -0.58758326704E+02  0.12018444154E+03  0.13394323605E+03  0.00000000000E+00 0. -1.
       -4    1    5    5    0  502 -0.16683742130E+02  0.62438560153E+01 -0.15647043454E+02  0.23709975923E+02  0.00000000000E+00 0.  1.
<mgrwt>
<rscale>  0 0.11484556E+03</rscale>
<asrwt>0</asrwt>
<pdfrwt beam="1">  1        2 0.53580593E-01 0.11879264E+03</pdfrwt>
<pdfrwt beam="2">  1       -2 0.13747980E-01 0.11879264E+03</pdfrwt>
<totfact> 0.35300507E+03</totfact>
</mgrwt>
</event>
<event>
11   0  0.7688500E-08  0.2645600E+03  0.7546771E-02  0.1104434E+00
       -1   -1    0    0    0  501  0.00000000000E+00  0.00000000000E+00  0.20546905781E+03  0.20546905781E+03  0.00000000000E+00 0.  1.
        1   -1    0    0  501    0  0.00000000000E+00  0.00000000000E+00 -0.85161229397E+02  0.85161229397E+02  0.00000000000E+00 0. -1.
       23    2    1    2    0    0  0.29714016351E+02  0.38930681887E+02 -0.87525448517E+01  0.10440391868E+03  0.91788073490E+02 0.  0.
       25    2    1    2    0    0 -0.29714016351E+02 -0.38930681887E+02  0.12906037326E+03  0.18622636852E+03  0.12500063850E+03 0.  0.
       23    2    4    4    0    0 -0.18617445511E+02 -0.21656553846E+02  0.12830158404E+03  0.15136516794E+03  0.75063319919E+02 0.  0.
      -11    1    3    3    0    0  0.27393148231E+02  0.14419433573E+01  0.36458892235E+02  0.45625810608E+02  0.00000000000E+00 0.  1.
       11    1    3    3    0    0  0.23208681202E+01  0.37488738530E+02 -0.45211437087E+02  0.58778108074E+02  0.00000000000E+00 0. -1.
      -13    1    5    5    0    0 -0.11559503566E+01 -0.48036749143E+02  0.67926426510E+02  0.83203755371E+02  0.00000000000E+00 0. -1.
       13    1    5    5    0    0 -0.17461495154E+02  0.26380195298E+02  0.60375157526E+02  0.68161412568E+02  0.00000000000E+00 0.  1.
        4    1    4    4  502    0 -0.17998800925E+02 -0.35517404109E+01  0.48286166259E+01  0.18970694062E+02  0.00000000000E+00 0.  1.
       -4    1    4    4    0  502  0.69022300845E+01 -0.13722387631E+02 -0.40698273995E+01  0.15890506521E+02  0.00000000000E+00 0. -1.
<mgrwt>
<rscale>  0 0.26455999E+03</rscale>
<asrwt>0</asrwt>
<pdfrwt beam="1">  1        1 0.13101728E-01 0.26455999E+03</pdfrwt>
<pdfrwt beam="2">  1       -1 0.31610624E-01 0.26455999E+03</pdfrwt>
<totfact> 0.41344577E+03</totfact>
</mgrwt>
</event>
<event>
10   0  0.7688500E-08  0.3201512E+03  0.7546771E-02  0.1116682E+00
       -2   -1    0    0    0  501  0.00000000000E+00  0.00000000000E+00  0.69432831214E+03  0.69432831214E+03  0.00000000000E+00 0.  1.
        2   -1    0    0  502    0  0.00000000000E+00  0.00000000000E+00 -0.30882654194E+04  0.30882654194E+04  0.00000000000E+00 0. -1.
       23    2    1    2    0    0 -0.56167407192E+02 -0.23775227727E+02 -0.31210019094E+02  0.11368343477E+03  0.90718349664E+02 0.  0.
       23    2    1    2    0    0  0.28842682921E+02  0.14041560462E+03  0.24823291575E+03  0.30093103985E+03  0.91604955657E+02 0.  0.
      -11    1    4    4    0    0 -0.33482588610E+02  0.46146710900E+02  0.88011912360E+02  0.10486514857E+03  0.00000000000E+00 0. -1.
       11    1    4    4    0    0  0.62325271531E+02  0.94268893717E+02  0.16022100339E+03  0.19606589128E+03  0.00000000000E+00 0.  1.
      -13    1    3    3    0    0 -0.80742468975E+02 -0.12670884068E+02 -0.28599421642E+02  0.86589979313E+02  0.00000000000E+00 0. -1.
       13    1    3    3    0    0  0.24575061783E+02 -0.11104343659E+02 -0.26105974525E+01  0.27093455460E+02  0.00000000000E+00 0.  1.
        1    1    1    2  502    0 -0.31109970292E+03  0.70211273902E+02 -0.28796097562E+04  0.28972167672E+04  0.00000000000E+00 0. -1.
       -1    1    1    2    0  501  0.33842442719E+03 -0.18685165079E+03  0.26864975229E+03  0.47076248972E+03  0.00000000000E+00 0.  1.
<mgrwt>
<rscale>  0 0.24472970E+03</rscale>
<asrwt>0</asrwt>
<pdfrwt beam="1">  1        2 0.47511776E+00 0.32015119E+03</pdfrwt>
<pdfrwt beam="2">  1       -2 0.10681974E+00 0.18707607E+03</pdfrwt>
<totfact> 0.13646932E+00</totfact>
</mgrwt>
</event>
<event>
10   0  0.7688500E-08  0.1720620E+03  0.7546771E-02  0.1346326E+00
        2   -1    0    0  502    0  0.00000000000E+00  0.00000000000E+00  0.64434903925E+03  0.64434903925E+03  0.00000000000E+00 0. -1.
        1   -1    0    0  501    0  0.00000000000E+00  0.00000000000E+00 -0.17096386213E+04  0.17096386213E+04  0.00000000000E+00 0. -1.
       23    2    1    2    0    0 -0.49507846361E+02  0.83435711777E+02  0.14613870469E+03  0.19445851197E+03  0.83934778356E+02 0.  0.
       23    2    1    2    0    0  0.17917406843E+03 -0.14646258090E+03 -0.10842900036E+04  0.11125044694E+04  0.91797321050E+02 0.  0.
      -11    1    4    4    0    0  0.15189300233E+03 -0.12705030424E+03 -0.10288858442E+04  0.10477687457E+04  0.00000000000E+00 0. -1.
       11    1    4    4    0    0  0.27281066093E+02 -0.19412276653E+02 -0.55404159406E+02  0.64735723766E+02  0.00000000000E+00 0.  1.
      -13    1    3    3    0    0 -0.64647340053E+02  0.27448293205E+02  0.77180215620E+02  0.10435263801E+03  0.00000000000E+00 0. -1.
       13    1    3    3    0    0  0.15139493692E+02  0.55987418572E+02  0.68958489072E+02  0.90105873963E+02  0.00000000000E+00 0.  1.
        2    1    1    2  501    0  0.19986167965E+02  0.25002772941E+02 -0.57366370608E+03  0.57455603142E+03  0.00000000000E+00 0. -1.
        1    1    1    2  502    0 -0.14965239003E+03  0.38024096179E+02  0.44652542296E+03  0.47246864773E+03  0.00000000000E+00 0. -1.
<mgrwt>
<rscale>  0 0.74212919E+02</rscale>
<asrwt>0</asrwt>
<pdfrwt beam="1">  1        2 0.99130621E-01 0.17206198E+03</pdfrwt>
<pdfrwt beam="2">  1        1 0.26302133E+00 0.32009148E+02</pdfrwt>
<totfact> 0.42445062E+01</totfact>
</mgrwt>
</event>
<event>
10   0  0.7688500E-08  0.1616545E+03  0.7546771E-02  0.1244690E+00
        2   -1    0    0  502    0  0.00000000000E+00  0.00000000000E+00  0.99972120462E+03  0.99972120462E+03  0.00000000000E+00 0. -1.
        1   -1    0    0  501    0  0.00000000000E+00  0.00000000000E+00 -0.23337947460E+03  0.23337947460E+03  0.00000000000E+00 0. -1.
       23    2    1    2    0    0 -0.61755812716E+02  0.24545646898E+02  0.18770600901E+03  0.21870098818E+03  0.90445050868E+02 0.  0.
       23    2    1    2    0    0  0.23623262042E+03  0.33127727337E+02 -0.67933399287E+02  0.26389647050E+03  0.90128259363E+02 0.  0.
      -11    1    3    3    0    0  0.22523592432E+02  0.26725057235E+00  0.23577984020E+02  0.32608357355E+02  0.00000000000E+00 0. -1.
       11    1    3    3    0    0 -0.84279405148E+02  0.24278396325E+02  0.16412802499E+03  0.18609263083E+03  0.00000000000E+00 0.  1.
      -13    1    4    4    0    0  0.10539862710E+02 -0.20356812823E+02 -0.86047436493E+01  0.24485304726E+02  0.00000000000E+00 0.  1.
       13    1    4    4    0    0  0.22569275771E+03  0.53484540159E+02 -0.59328655637E+02  0.23941116578E+03  0.00000000000E+00 0. -1.
        2    1    1    2  501    0  0.10652189195E+02 -0.87009202296E+02  0.11571661315E+02  0.88419306514E+02  0.00000000000E+00 0. -1.
        1    1    1    2  502    0 -0.18512899690E+03  0.29335828062E+02  0.63499745897E+03  0.66208391402E+03  0.00000000000E+00 0. -1.
<mgrwt>
<rscale>  0 0.11903967E+03</rscale>
<asrwt>0</asrwt>
<pdfrwt beam="1">  1        2 0.15380326E+00 0.16165449E+03</pdfrwt>
<pdfrwt beam="2">  1        1 0.35904535E-01 0.87658830E+02</pdfrwt>
<totfact> 0.43869814E+02</totfact>
</mgrwt>
</event>
<event>
10   0  0.7688500E-08  0.4377266E+02  0.7546771E-02  0.1517592E+00
        1   -1    0    0  501    0  0.00000000000E+00  0.00000000000E+00  0.27691155526E+04  0.27691155526E+04  0.00000000000E+00 0. -1.
        2   -1    0    0  502    0  0.00000000000E+00  0.00000000000E+00 -0.14664420387E+03  0.14664420387E+03  0.00000000000E+00 0. -1.
       23    2    1    2    0    0  0.31930721659E+03  0.22265264199E+02  0.21867495556E+03  0.39833934636E+03  0.91666013977E+02 0.  0.
       23    2    1    2    0    0 -0.29135733881E+03 -0.17556140928E+02  0.46964614871E+03  0.56052269494E+03  0.91765296209E+02 0.  0.
      -11    1    4    4    0    0 -0.29108061604E+03 -0.28035787147E+02  0.43368472712E+03  0.52306440610E+03  0.00000000000E+00 0. -1.
       11    1    4    4    0    0 -0.27672277177E+00  0.10479646218E+02  0.35961421585E+02  0.37458288840E+02  0.00000000000E+00 0.  1.
      -13    1    3    3    0    0  0.16732202267E+03 -0.34044570743E+02  0.11748757255E+03  0.20726558270E+03  0.00000000000E+00 0. -1.
       13    1    3    3    0    0  0.15198519391E+03  0.56309834941E+02  0.10118738300E+03  0.19107376366E+03  0.00000000000E+00 0.  1.
        2    1    1    2  501    0 -0.46805303396E+01  0.33988587489E+02  0.18999327571E+04  0.19002425143E+04  0.00000000000E+00 0. -1.
        1    1    1    2  502    0 -0.23269347439E+02 -0.38697710759E+02  0.34217487318E+02  0.56655200879E+02  0.00000000000E+00 0. -1.
<mgrwt>
<rscale>  0 0.38753211E+02</rscale>
<asrwt>0</asrwt>
<pdfrwt beam="1">  1        2 0.22560647E-01 0.43772657E+02</pdfrwt>
<pdfrwt beam="2">  1        1 0.42601778E+00 0.34309349E+02</pdfrwt>
<totfact> 0.45480652E+01</totfact>
</mgrwt>
</event>
<event>
10   0  0.7688500E-08  0.2124726E+03  0.7546771E-02  0.1377998E+00
        1   -1    0    0  502    0  0.00000000000E+00  0.00000000000E+00  0.32618498133E+03  0.32618498133E+03  0.00000000000E+00 0. -1.
       -1   -1    0    0    0  501  0.00000000000E+00  0.00000000000E+00 -0.78649308972E+03  0.78649308972E+03  0.00000000000E+00 0.  1.
       23    2    1    2    0    0 -0.64686388091E+02  0.20827391167E+02 -0.59112559687E+02  0.12780065593E+03  0.90667546108E+02 0.  0.
       23    2    1    2    0    0 -0.12205641093E+03  0.10065933858E+03 -0.25651235670E+03  0.31519595179E+03  0.92302919752E+02 0.  0.
      -11    1    4    4    0    0  0.45876971732E+01  0.19698523455E+02 -0.83933653310E+02  0.86336185632E+02  0.00000000000E+00 0.  1.
       11    1    4    4    0    0 -0.12664410811E+03  0.80960815128E+02 -0.17257870339E+03  0.22885976616E+03  0.00000000000E+00 0. -1.
      -13    1    3    3    0    0 -0.65731011182E+02  0.47861893531E+02 -0.59480430819E+02  0.10074347787E+03  0.00000000000E+00 0. -1.
       13    1    3    3    0    0  0.10446230904E+01 -0.27034502364E+02  0.36787113210E+00  0.27057178062E+02  0.00000000000E+00 0.  1.
        2    1    1    2  502    0 -0.15671915698E+02 -0.12232251401E+02  0.22955080392E+03  0.23041008766E+03  0.00000000000E+00 0. -1.
       -2    1    1    2    0  501  0.20241471472E+03 -0.10925447835E+03 -0.37423399592E+03  0.43927137566E+03  0.00000000000E+00 0.  1.
<mgrwt>
<rscale>  0 0.64992892E+02</rscale>
<asrwt>0</asrwt>
<pdfrwt beam="1">  1        1 0.50182305E-01 0.19880566E+02</pdfrwt>
<pdfrwt beam="2">  1       -1 0.12099894E+00 0.21247262E+03</pdfrwt>
<totfact> 0.52453575E+01</totfact>
</mgrwt>
</event>
<event>
11   0  0.7688500E-08  0.1329875E+03  0.7546771E-02  0.1243215E+00
        2   -1    0    0  501    0  0.00000000000E+00  0.00000000000E+00  0.69097819159E+03  0.69097819159E+03  0.00000000000E+00 0. -1.
       -2   -1    0    0    0  501  0.00000000000E+00  0.00000000000E+00 -0.43769186132E+02  0.43769186132E+02  0.00000000000E+00 0.  1.
       23    2    1    2    0    0  0.46935090088E+01 -0.12804022334E+02  0.21584761140E+03  0.23307994639E+03  0.86891300190E+02 0.  0.
       23    2    1    2    0    0 -0.80084087286E+01  0.57986512962E+02  0.28823711844E+03  0.30746044365E+03  0.89580788477E+02 0.  0.
       23    2    1    2    0    0  0.33148997198E+01 -0.45182490629E+02  0.14312427562E+03  0.19420698768E+03  0.12320450387E+03 0.  0.
      -11    1    3    3    0    0 -0.19069312604E+02 -0.43174480888E+02  0.14400197381E+03  0.15153957551E+03  0.00000000000E+00 0.  1.
       11    1    3    3    0    0  0.23762821613E+02  0.30370458554E+02  0.71845637584E+02  0.81540370882E+02  0.00000000000E+00 0. -1.
      -13    1    5    5    0    0  0.15723828466E+02 -0.52354059096E+02  0.45059507357E+01  0.54849702620E+02  0.00000000000E+00 0.  1.
       13    1    5    5    0    0 -0.12408928746E+02  0.71715684674E+01  0.13861832488E+03  0.13935728506E+03  0.00000000000E+00 0. -1.
        4    1    4    4  502    0  0.35195893058E+02  0.57940931926E+01  0.64704730423E+02  0.73885211938E+02  0.00000000000E+00 0.  1.
       -4    1    4    4    0  502 -0.43204301787E+02  0.52192419770E+02  0.22353238802E+03  0.23357523171E+03  0.00000000000E+00 0. -1.
<mgrwt>
<rscale>  0 0.11992871E+03</rscale>
<asrwt>0</asrwt>
<pdfrwt beam="1">  1        2 0.10630434E+00 0.13298750E+03</pdfrwt>
<pdfrwt beam="2">  1       -2 0.67337209E-02 0.13298750E+03</pdfrwt>
<totfact> 0.51055290E+03</totfact>
</mgrwt>
</event>
<event>
10   0  0.7688500E-08  0.1272894E+03  0.7546771E-02  0.1294994E+00
       -3   -1    0    0    0  501  0.00000000000E+00  0.00000000000E+00  0.51626027335E+03  0.51626027335E+03  0.00000000000E+00 0.  1.
        1   -1    0    0  502    0  0.00000000000E+00  0.00000000000E+00 -0.18811918254E+04  0.18811918254E+04  0.00000000000E+00 0. -1.
       23    2    1    2    0    0 -0.10572282671E+02 -0.10075006609E+03 -0.33301743809E+03  0.36053118396E+03  0.93913638844E+02 0.  0.
       23    2    1    2    0    0 -0.57898076593E+02 -0.40191903825E+01  0.38325059522E+03  0.39976099066E+03  0.97772643158E+02 0.  0.
      -11    1    3    3    0    0 -0.20901149495E+02 -0.30497372310E+02 -0.24340072785E+03  0.24619273362E+03  0.00000000000E+00 0.  1.
       11    1    3    3    0    0  0.10328866824E+02 -0.70252693782E+02 -0.89616710234E+02  0.11433845034E+03  0.00000000000E+00 0. -1.
      -13    1    4    4    0    0 -0.22885567843E+02  0.46683769374E+02  0.16740763797E+03  0.17529529597E+03  0.00000000000E+00 0. -1.
       13    1    4    4    0    0 -0.35012508750E+02 -0.50702959756E+02  0.21584295725E+03  0.22446569468E+03  0.00000000000E+00 0.  1.
        2    1    1    2  502    0  0.11634161079E+03  0.15365719622E+03 -0.15088717217E+04  0.15211310848E+04  0.00000000000E+00 0. -1.
       -4    1    1    2    0  501 -0.47871251525E+02 -0.48887939747E+02  0.93707012528E+02  0.11602883940E+03  0.00000000000E+00 0.  1.
<mgrwt>
<rscale>  0 0.93324719E+02</rscale>
<asrwt>0</asrwt>
<pdfrwt beam="1">  1        1 0.28941413E+00 0.12728938E+03</pdfrwt>
<pdfrwt beam="2">  1       -3 0.79424657E-01 0.68422857E+02</pdfrwt>
<totfact> 0.35127982E+00</totfact>
</mgrwt>
</event>
<event>
10   0  0.7688500E-08  0.1928715E+03  0.7546771E-02  0.1204663E+00
        1   -1    0    0  501    0  0.00000000000E+00  0.00000000000E+00  0.12850655121E+04  0.12850655121E+04  0.00000000000E+00 0. -1.
        2   -1    0    0  502    0  0.00000000000E+00  0.00000000000E+00 -0.11090336290E+04  0.11090336290E+04  0.00000000000E+00 0. -1.
       23    2    1    2    0    0 -0.28844244587E+02 -0.86355735637E+02 -0.56471839166E+02  0.14041616715E+03  0.90765234844E+02 0.  0.
       23    2    1    2    0    0  0.75904232655E+02  0.22660573199E+03  0.65371348801E+03  0.70213126462E+03  0.92387109757E+02 0.  0.
      -11    1    3    3    0    0 -0.26072727989E+02 -0.16881637086E+02  0.20092170436E+02  0.36992865911E+02  0.00000000000E+00 0.  1.
       11    1    3    3    0    0 -0.27715165979E+01 -0.69474098551E+02 -0.76564009602E+02  0.10342330124E+03  0.00000000000E+00 0. -1.
      -13    1    4    4    0    0  0.79034425461E+02  0.18871592805E+03  0.61383227268E+03  0.64703183917E+03  0.00000000000E+00 0. -1.
       13    1    4    4    0    0 -0.31301928060E+01  0.37889803941E+02  0.39881215326E+02  0.55099425456E+02  0.00000000000E+00 0.  1.
        2    1    1    2  501    0  0.11090750740E+03  0.11388641889E+02  0.54732887699E+03  0.55856877459E+03  0.00000000000E+00 0. -1.
        1    1    1    2  502    0 -0.15796749547E+03 -0.15163863824E+03 -0.96853864271E+03  0.99298293473E+03  0.00000000000E+00 0. -1.
<mgrwt>
<rscale>  0 0.14664031E+03</rscale>
<asrwt>0</asrwt>
<pdfrwt beam="1">  1        2 0.17062056E+00 0.19287152E+03</pdfrwt>
<pdfrwt beam="2">  1        1 0.19770239E+00 0.11149070E+03</pdfrwt>
<totfact> 0.33975066E+01</totfact>
</mgrwt>
</event>
<event>
10   0  0.7688500E-08  0.6292752E+02  0.7546771E-02  0.1399170E+00
        2   -1    0    0  502    0  0.00000000000E+00  0.00000000000E+00  0.36197668357E+03  0.36197668357E+03  0.00000000000E+00 0. -1.
        1   -1    0    0  501    0  0.00000000000E+00  0.00000000000E+00 -0.13723469929E+04  0.13723469929E+04  0.00000000000E+00 0. -1.
       23    2    1    2    0    0 -0.13576795510E+02 -0.10795259486E+02  0.10742423397E+03  0.14283873614E+03  0.92531462186E+02 0.  0.
       23    2    1    2    0    0 -0.32209877808E+01 -0.60090277762E+02 -0.74350888411E+02  0.13211677524E+03  0.91134907955E+02 0.  0.
      -11    1    4    4    0    0 -0.38019827892E+02 -0.39212745049E+02 -0.92391821680E+01  0.55394125811E+02  0.00000000000E+00 0. -1.
       11    1    4    4    0    0  0.34798840111E+02 -0.20877532713E+02 -0.65111706243E+02  0.76722649427E+02  0.00000000000E+00 0.  1.
      -13    1    3    3    0    0  0.34500847513E+02 -0.26383677475E+02  0.45401521681E+02  0.62830765451E+02  0.00000000000E+00 0. -1.
       13    1    3    3    0    0 -0.48077643023E+02  0.15588417989E+02  0.62022712291E+02  0.80007970690E+02  0.00000000000E+00 0.  1.
        2    1    1    2  501    0  0.55585171112E+02  0.29659191383E+02 -0.12467439309E+04  0.12483348141E+04  0.00000000000E+00 0. -1.
        1    1    1    2  502    0 -0.38787387821E+02  0.41226345865E+02  0.20330027595E+03  0.21103335103E+03  0.00000000000E+00 0. -1.
<mgrwt>
<rscale>  0 0.59682350E+02</rscale>
<asrwt>0</asrwt>
<pdfrwt beam="1">  1        2 0.55688721E-01 0.56604532E+02</pdfrwt>
<pdfrwt beam="2">  1        1 0.21113031E+00 0.62927521E+02</pdfrwt>
<totfact> 0.12077934E+02</totfact>
</mgrwt>
</event>
<event>
11   0  0.7688500E-08  0.1431540E+03  0.7546771E-02  0.1217317E+00
        1   -1    0    0  501    0  0.00000000000E+00  0.00000000000E+00  0.15501712082E+04  0.15501712082E+04  0.00000000000E+00 0. -1.
       -1   -1    0    0    0  501  0.00000000000E+00  0.00000000000E+00 -0.14215272700E+03  0.14215272700E+03  0.00000000000E+00 0.  1.
       23    2    1    2    0    0  0.87000601439E+02 -0.15337910873E+03  0.23621545458E+03  0.30941985033E+03  0.94067248038E+02 0.  0.
       23    2    1    2    0    0 -0.21774247808E+02  0.74961409194E+02 -0.66483523376E+02  0.13701683235E+03  0.90885767478E+02 0.  0.
       23    2    1    2    0    0 -0.65226353631E+02  0.78417699535E+02  0.12382865500E+04  0.12458872525E+04  0.92074172616E+02 0.  0.
      -11    1    5    5    0    0  0.58976601623E+01  0.38502535384E+02  0.73532355523E+03  0.73635450600E+03  0.00000000000E+00 0. -1.
       11    1    5    5    0    0 -0.71124013793E+02  0.39915164150E+02  0.50296299480E+03  0.50953274655E+03  0.00000000000E+00 0.  1.
      -13    1    3    3    0    0  0.27819858228E+02 -0.12627883299E+03  0.18903044038E+03  0.22902575305E+03  0.00000000000E+00 0.  1.
       13    1    3    3    0    0  0.59180743211E+02 -0.27100275738E+02  0.47185014204E+02  0.80394097280E+02  0.00000000000E+00 0. -1.
        1    1    4    4  502    0  0.33639887537E+02  0.46015247649E+02 -0.36448961896E+02  0.67657755453E+02  0.00000000000E+00 0. -1.
       -1    1    4    4    0  502 -0.55414135345E+02  0.28946161545E+02 -0.30034561480E+02  0.69359076893E+02  0.00000000000E+00 0.  1.
<mgrwt>
<rscale>  0 0.13707680E+03</rscale>
<asrwt>0</asrwt>
<pdfrwt beam="1">  1        1 0.23848788E+00 0.14315401E+03</pdfrwt>
<pdfrwt beam="2">  1       -1 0.21869650E-01 0.14315401E+03</pdfrwt>
<totfact> 0.12148584E+02</totfact>
</mgrwt>
</event>
<event>
10   0  0.7688500E-08  0.1280239E+03  0.7546771E-02  0.1374940E+00
       -4   -1    0    0    0  501  0.00000000000E+00  0.00000000000E+00  0.22957700711E+03  0.22957700711E+03  0.00000000000E+00 0.  1.
        2   -1    0    0  502    0  0.00000000000E+00  0.00000000000E+00 -0.77000361657E+03  0.77000361657E+03  0.00000000000E+00 0. -1.
       23    2    1    2    0    0 -0.34814372497E+02  0.12544226696E+03  0.15341293962E+03  0.21929983735E+03  0.87230073634E+02 0.  0.
       23    2    1    2    0    0 -0.39827574035E+02  0.16015566041E+02 -0.21724026587E+03  0.23938251064E+03  0.90928099488E+02 0.  0.
      -11    1    4    4    0    0 -0.71194558061E+01 -0.34308930661E+02 -0.45317013915E+02  0.57283689862E+02  0.00000000000E+00 0. -1.
       11    1    4    4    0    0 -0.32708118229E+02  0.50324496701E+02 -0.17192325196E+03  0.18209882078E+03  0.00000000000E+00 0.  1.
      -13    1    3    3    0    0  0.10498721687E+02 -0.96197148996E+01  0.14513199443E+02  0.20332118185E+02  0.00000000000E+00 0. -1.
       13    1    3    3    0    0 -0.45313094184E+02  0.13506198186E+03  0.13889974018E+03  0.19896771916E+03  0.00000000000E+00 0.  1.
        1    1    1    2  502    0  0.91848104469E+02 -0.17058778596E+03 -0.46720935444E+03  0.50578735442E+03  0.00000000000E+00 0. -1.
       -3    1    1    2    0  501 -0.17206157936E+02  0.29129952959E+02 -0.93899287693E+01  0.35110921273E+02  0.00000000000E+00 0.  1.
<mgrwt>
<rscale>  0 0.65812661E+02</rscale>
<asrwt>0</asrwt>
<pdfrwt beam="1">  1        2 0.11846209E+00 0.12802385E+03</pdfrwt>
<pdfrwt beam="2">  1       -4 0.35319540E-01 0.33832027E+02</pdfrwt>
<totfact> 0.12986249E+02</totfact>
</mgrwt>
</event>
<event>
10   0  0.7688500E-08  0.1294530E+03  0.7546771E-02  0.1230597E+00
        2   -1    0    0  502    0  0.00000000000E+00  0.00000000000E+00  0.19635370194E+04  0.19635370194E+04  0.00000000000E+00 0. -1.
        1   -1    0    0  501    0  0.00000000000E+00  0.00000000000E+00 -0.77351626037E+03  0.77351626037E+03  0.00000000000E+00 0. -1.
       23    2    1    2    0    0 -0.28183222099E+02  0.44351754934E+02  0.36069411975E+03  0.37570331857E+03  0.91056923915E+02 0.  0.
       23    2    1    2    0    0  0.14795622616E+02 -0.60810753441E+02 -0.22949746830E+03  0.25472901512E+03  0.91109412261E+02 0.  0.
      -11    1    4    4    0    0 -0.21487600322E+02 -0.38906194085E+02 -0.37629094911E+02  0.58235364595E+02  0.00000000000E+00 0.  1.
       11    1    4    4    0    0  0.36283222937E+02 -0.21904559356E+02 -0.19186837339E+03  0.19649365052E+03  0.00000000000E+00 0. -1.
      -13    1    3    3    0    0 -0.14152430368E+02  0.16314356608E+02  0.33350573966E+03  0.33420432059E+03  0.00000000000E+00 0.  1.
       13    1    3    3    0    0 -0.14030791732E+02  0.28037398326E+02  0.27188380085E+02  0.41498997978E+02  0.00000000000E+00 0. -1.
        2    1    1    2  501    0  0.12234539649E+03 -0.77765760560E+01 -0.51472261268E+03  0.52912025021E+03  0.00000000000E+00 0. -1.
        1    1    1    2  502    0 -0.10895779701E+03  0.24235574563E+02  0.15735467203E+04  0.15775006959E+04  0.00000000000E+00 0. -1.
<mgrwt>
<rscale>  0 0.12790586E+03</rscale>
<asrwt>0</asrwt>
<pdfrwt beam="1">  1        2 0.30208262E+00 0.12637717E+03</pdfrwt>
<pdfrwt beam="2">  1        1 0.11900250E+00 0.12945305E+03</pdfrwt>
<totfact> 0.28994972E+01</totfact>
</mgrwt>
</event>
<event>
10   0  0.7688500E-08  0.3253570E+03  0.7546771E-02  0.1227955E+00
        2   -1    0    0  502    0  0.00000000000E+00  0.00000000000E+00  0.19192564537E+04  0.19192564537E+04  0.00000000000E+00 0. -1.
        3   -1    0    0  501    0  0.00000000000E+00  0.00000000000E+00 -0.89619224642E+02  0.89619224642E+02  0.00000000000E+00 0. -1.
       23    2    1    2    0    0 -0.78778330960E+02  0.28406172236E+03  0.86268775985E+03  0.91608393828E+03  0.89902855581E+02 0.  0.
       23    2    1    2    0    0 -0.29009884011E+02 -0.92784395015E+01  0.28086207412E+03  0.29686747615E+03  0.91209269857E+02 0.  0.
      -11    1    4    4    0    0  0.21565861167E+02 -0.19660622423E+02  0.19110439506E+03  0.19331972546E+03  0.00000000000E+00 0. -1.
       11    1    4    4    0    0 -0.50575745178E+02  0.10382182921E+02  0.89757679061E+02  0.10354775069E+03  0.00000000000E+00 0.  1.
      -13    1    3    3    0    0 -0.89883569254E+02  0.17730474554E+03  0.60907420938E+03  0.64069292281E+03  0.00000000000E+00 0.  1.
       13    1    3    3    0    0  0.11105238293E+02  0.10675697682E+03  0.25361355047E+03  0.27539101546E+03  0.00000000000E+00 0. -1.
        4    1    1    2  501    0  0.12995897702E+03 -0.32146011261E+03  0.54797821670E+03  0.64846439045E+03  0.00000000000E+00 0. -1.
        1    1    1    2  502    0 -0.22170762045E+02  0.46676829753E+02  0.13810917842E+03  0.14745987349E+03  0.00000000000E+00 0. -1.
<mgrwt>
<rscale>  0 0.12966382E+03</rscale>
<asrwt>0</asrwt>
<pdfrwt beam="1">  1        2 0.29527022E+00 0.51674647E+02</pdfrwt>
<pdfrwt beam="2">  1        3 0.13787573E-01 0.32535695E+03</pdfrwt>
<totfact> 0.26794967E+02</totfact>
</mgrwt>
</event>
<event>
10   0  0.7688500E-08  0.1899657E+03  0.7546771E-02  0.1386401E+00
        2   -1    0    0  502    0  0.00000000000E+00  0.00000000000E+00  0.12450643887E+04  0.12450643887E+04  0.00000000000E+00 0. -1.
        1   -1    0    0  501    0  0.00000000000E+00  0.00000000000E+00 -0.40821757768E+03  0.40821757768E+03  0.00000000000E+00 0. -1.
       23    2    1    2    0    0 -0.19903997205E+03  0.72460528289E+01  0.32588604069E+03  0.39279234610E+03  0.91731673307E+02 0.  0.
       23    2    1    2    0    0 -0.67796747973E+02  0.11547912106E+03  0.13352714277E+02  0.16206229577E+03  0.90299868748E+02 0.  0.
      -11    1    3    3    0    0 -0.13331664588E+03  0.32677651927E+02  0.26986003581E+03  0.30276326714E+03  0.00000000000E+00 0.  1.
       11    1    3    3    0    0 -0.65723326175E+02 -0.25431599098E+02  0.56026004874E+02  0.90029078960E+02  0.00000000000E+00 0. -1.
      -13    1    4    4    0    0  0.17330787247E+02  0.41368227042E+02 -0.11900971752E+02  0.46403874018E+02  0.00000000000E+00 0. -1.
       13    1    4    4    0    0 -0.85127535219E+02  0.74110894018E+02  0.25253686030E+02  0.11565842175E+03  0.00000000000E+00 0.  1.
        2    1    1    2  501    0  0.28288938562E+03 -0.13590172860E+03 -0.21825011390E+03  0.38226796433E+03  0.00000000000E+00 0. -1.
        1    1    1    2  502    0 -0.16052665600E+02  0.13176554710E+02  0.71585816995E+03  0.71615936016E+03  0.00000000000E+00 0. -1.
<mgrwt>
<rscale>  0 0.62810885E+02</rscale>
<asrwt>0</asrwt>
<pdfrwt beam="1">  1        2 0.19154837E+00 0.20767996E+02</pdfrwt>
<pdfrwt beam="2">  1        1 0.62802704E-01 0.18996572E+03</pdfrwt>
<totfact> 0.18248919E+02</totfact>
</mgrwt>
</event>
<event>
10   0  0.7688500E-08  0.1149105E+03  0.7546771E-02  0.1266158E+00
        1   -1    0    0  501    0  0.00000000000E+00  0.00000000000E+00  0.14617745349E+04  0.14617745349E+04  0.00000000000E+00 0. -1.
        2   -1    0    0  502    0  0.00000000000E+00  0.00000000000E+00 -0.15430194006E+04  0.15430194006E+04  0.00000000000E+00 0. -1.
       23    2    1    2    0    0 -0.37082968888E+02 -0.91685624293E+02 -0.18785026966E+02  0.13602848018E+03  0.91484806929E+02 0.  0.
       23    2    1    2    0    0  0.12012194111E+03  0.26530290735E+02 -0.15824646974E+02  0.15355830509E+03  0.90535057011E+02 0.  0.
      -11    1    3    3    0    0  0.30759852669E+02 -0.31525712113E+02 -0.66804523671E+01  0.44549607229E+02  0.00000000000E+00 0.  1.
       11    1    3    3    0    0 -0.67842821557E+02 -0.60159912180E+02 -0.12104574599E+02  0.91478872952E+02  0.00000000000E+00 0. -1.
      -13    1    4    4    0    0  0.23493841892E+02  0.33272296908E+02  0.25709305970E+02  0.48166116325E+02  0.00000000000E+00 0.  1.
       13    1    4    4    0    0  0.96628099214E+02 -0.67420061731E+01 -0.41533952945E+02  0.10539218876E+03  0.00000000000E+00 0. -1.
        2    1    1    2  501    0 -0.11049599155E+03 -0.30691548230E+02  0.13300156929E+04  0.13349505904E+04  0.00000000000E+00 0. -1.
        1    1    1    2  502    0  0.27457019333E+02  0.95846881788E+02 -0.13766508847E+04  0.13802565599E+04  0.00000000000E+00 0. -1.
<mgrwt>
<rscale>  0 0.10703652E+03</rscale>
<asrwt>0</asrwt>
<pdfrwt beam="1">  1        2 0.23738760E+00 0.99702120E+02</pdfrwt>
<pdfrwt beam="2">  1        1 0.22488839E+00 0.11491046E+03</pdfrwt>
<totfact> 0.15846284E+01</totfact>
</mgrwt>
</event>
<event>
11   0  0.7688500E-08  0.1184355E+03  0.7546771E-02  0.1257719E+00
        1   -1    0    0  501    0  0.00000000000E+00  0.00000000000E+00  0.12533249575E+03  0.12533249575E+03  0.00000000000E+00 0. -1.
       -1   -1    0    0    0  501  0.00000000000E+00  0.00000000000E+00 -0.49023489465E+03  0.49023489465E+03  0.00000000000E+00 0.  1.
       23    2    1    2    0    0  0.57538232662E+02  0.55652915512E+01 -0.70634573112E+02  0.13067143678E+03  0.93510217535E+02 0.  0.
       23    2    1    2    0    0 -0.78413786540E+02 -0.13501373244E+02 -0.35440262512E+03  0.37452839473E+03  0.91319706372E+02 0.  0.
       23    2    1    2    0    0  0.20875553878E+02  0.79360816928E+01  0.60134799333E+02  0.11036755889E+03  0.89811100773E+02 0.  0.
      -11    1    4    4    0    0 -0.22253369622E+02  0.90273756421E+01 -0.26783152325E+03  0.26890598881E+03  0.00000000000E+00 0.  1.
       11    1    4    4    0    0 -0.56160416918E+02 -0.22528748886E+02 -0.86571101869E+02  0.10562240593E+03  0.00000000000E+00 0. -1.
      -13    1    5    5    0    0 -0.33613139933E+02 -0.55224465617E+01  0.35098333673E+02  0.48910465330E+02  0.00000000000E+00 0.  1.
       13    1    5    5    0    0  0.54488693811E+02  0.13458528255E+02  0.25036465659E+02  0.61457093559E+02  0.00000000000E+00 0. -1.
        3    1    3    3  502    0 -0.49127130870E+01  0.38818208404E+02 -0.27147134076E+02  0.47623050533E+02  0.00000000000E+00 0. -1.
       -3    1    3    3    0  502  0.62450945749E+02 -0.33252916853E+02 -0.43487439037E+02  0.83048386247E+02  0.00000000000E+00 0.  1.
<mgrwt>
<rscale>  0 0.11155385E+03</rscale>
<asrwt>0</asrwt>
<pdfrwt beam="1">  1        1 0.19281922E-01 0.11843550E+03</pdfrwt>
<pdfrwt beam="2">  1       -1 0.75420753E-01 0.11843550E+03</pdfrwt>
<totfact> 0.49432288E+02</totfact>
</mgrwt>
</event>
<event>
10   0  0.7688500E-08  0.1619026E+03  0.7546771E-02  0.1251765E+00
        1   -1    0    0  501    0  0.00000000000E+00  0.00000000000E+00  0.59798260617E+03  0.59798260617E+03  0.00000000000E+00 0. -1.
        4   -1    0    0  502    0  0.00000000000E+00  0.00000000000E+00 -0.18641351888E+03  0.18641351888E+03  0.00000000000E+00 0. -1.
       23    2    1    2    0    0 -0.29729889101E+02  0.50261501013E+02  0.29584603063E+02  0.11221348791E+03  0.91140185104E+02 0.  0.
       23    2    1    2    0    0  0.34052868544E+01  0.17097050940E+03  0.89403407189E+02  0.22457669670E+03  0.11488782539E+03 0.  0.
      -11    1    4    4    0    0 -0.35926560110E-01  0.13510618570E+03  0.77506003065E+01  0.13532832116E+03  0.00000000000E+00 0.  1.
       11    1    4    4    0    0  0.34412134145E+01  0.35864323704E+02  0.81652806883E+02  0.89248375539E+02  0.00000000000E+00 0. -1.
      -13    1    3    3    0    0 -0.66581194727E+01  0.72588829325E+02  0.32826255288E+02  0.79943928688E+02  0.00000000000E+00 0.  1.
       13    1    3    3    0    0 -0.23071769628E+02 -0.22327328313E+02 -0.32416522255E+01  0.32269559224E+02  0.00000000000E+00 0. -1.
        2    1    1    2  501    0 -0.24879557703E+02 -0.15777952064E+03  0.32319584853E+03  0.36051203313E+03  0.00000000000E+00 0. -1.
        3    1    1    2  502    0  0.51204159949E+02 -0.63452489775E+02 -0.30614771492E+02  0.87093907297E+02  0.00000000000E+00 0. -1.
<mgrwt>
<rscale>  0 0.11489497E+03</rscale>
<asrwt>0</asrwt>
<pdfrwt beam="1">  1        4 0.28679003E-01 0.81535786E+02</pdfrwt>
<pdfrwt beam="2">  1        1 0.91997324E-01 0.16190259E+03</pdfrwt>
<totfact> 0.17734413E+02</totfact>
</mgrwt>
</event>
<event>
10   0  0.7688500E-08  0.3880745E+03  0.7546771E-02  0.1106633E+00
        1   -1    0    0  501    0  0.00000000000E+00  0.00000000000E+00  0.70726963320E+03  0.70726963320E+03  0.00000000000E+00 0. -1.
        2   -1    0    0  502    0  0.00000000000E+00  0.00000000000E+00 -0.16513472243E+04  0.16513472243E+04  0.00000000000E+00 0. -1.
       23    2    1    2    0    0  0.85744682746E+01  0.83326672938E+02 -0.35044699325E+03  0.37073718538E+03  0.87270324929E+02 0.  0.
       23    2    1    2    0    0 -0.18112959904E+03  0.27380776653E+03  0.32633615404E+03  0.47160565893E+03  0.90210794505E+02 0.  0.
      -11    1    4    4    0    0 -0.10155039279E+02  0.56358403723E+02  0.95369478836E+02  0.11124177267E+03  0.00000000000E+00 0.  1.
       11    1    4    4    0    0 -0.17097455976E+03  0.21744936280E+03  0.23096667521E+03  0.36036388626E+03  0.00000000000E+00 0. -1.
      -13    1    3    3    0    0 -0.13989576572E+02  0.22816936887E+01 -0.47472169352E+01  0.14948259009E+02  0.00000000000E+00 0.  1.
       13    1    3    3    0    0  0.22564044847E+02  0.81044979249E+02 -0.34569977631E+03  0.35578892637E+03  0.00000000000E+00 0. -1.
        2    1    1    2  501    0  0.38957869006E+03 -0.43987802367E+03 -0.21192416230E+02  0.58797393647E+03  0.00000000000E+00 0. -1.
        1    1    1    2  502    0 -0.21702355930E+03  0.82743584205E+02 -0.89877433562E+03  0.92830007670E+03  0.00000000000E+00 0. -1.
<mgrwt>
<rscale>  0 0.26085037E+03</rscale>
<asrwt>0</asrwt>
<pdfrwt beam="1">  1        2 0.25405342E+00 0.17533468E+03</pdfrwt>
<pdfrwt beam="2">  1        1 0.10881071E+00 0.38807447E+03</pdfrwt>
<totfact> 0.44316988E+01</totfact>
</mgrwt>
</event>
<event>
10   0  0.7688500E-08  0.2688745E+03  0.7546771E-02  0.1115315E+00
        1   -1    0    0  501    0  0.00000000000E+00  0.00000000000E+00  0.53902076438E+03  0.53902076438E+03  0.00000000000E+00 0. -1.
        2   -1    0    0  502    0  0.00000000000E+00  0.00000000000E+00 -0.41159690180E+04  0.41159690180E+04  0.00000000000E+00 0. -1.
       23    2    1    2    0    0  0.17836992461E+03 -0.21446707423E+03 -0.46830937300E+03  0.55246900838E+03  0.89979889132E+02 0.  0.
       23    2    1    2    0    0  0.28126700315E+03  0.14447107953E+03  0.65990530409E+02  0.33549128360E+03  0.90645636339E+02 0.  0.
      -11    1    3    3    0    0  0.17455258477E+03 -0.16650628841E+03 -0.35329561909E+03  0.42779754954E+03  0.00000000000E+00 0.  1.
       11    1    3    3    0    0  0.38173398448E+01 -0.47960785822E+02 -0.11501375391E+03  0.12467145884E+03  0.00000000000E+00 0. -1.
      -13    1    4    4    0    0  0.41364910200E+02  0.56879093222E+02 -0.47277056991E+01  0.70488568171E+02  0.00000000000E+00 0.  1.
       13    1    4    4    0    0  0.23990209295E+03  0.87591986304E+02  0.70718236108E+02  0.26500271543E+03  0.00000000000E+00 0. -1.
        2    1    1    2  501    0 -0.19539495004E+03  0.11479507134E+03  0.24683216765E+03  0.33508687514E+03  0.00000000000E+00 0. -1.
        1    1    1    2  502    0 -0.26424197772E+03 -0.44799076635E+02 -0.34214615787E+04  0.34319426152E+04  0.00000000000E+00 0. -1.
<mgrwt>
<rscale>  0 0.24684535E+03</rscale>
<asrwt>0</asrwt>
<pdfrwt beam="1">  1        2 0.63322600E+00 0.26887453E+03</pdfrwt>
<pdfrwt beam="2">  1        1 0.82926271E-01 0.22662104E+03</pdfrwt>
<totfact> 0.20513355E+00</totfact>
</mgrwt>
</event>
<event>
10   0  0.7688500E-08  0.9315441E+02  0.7546771E-02  0.1321926E+00
       -1   -1    0    0    0  501  0.00000000000E+00  0.00000000000E+00  0.61483555399E+02  0.61483555399E+02  0.00000000000E+00 0.  1.
        3   -1    0    0  502    0  0.00000000000E+00  0.00000000000E+00 -0.10652355974E+04  0.10652355974E+04  0.00000000000E+00 0. -1.
       23    2    1    2    0    0 -0.55715335639E+02 -0.65022042567E+01 -0.87384072854E+02  0.12849120128E+03  0.75680481840E+02 0.  0.
       23    2    1    2    0    0  0.46413830047E+02  0.75378997918E+01 -0.27817080766E+03  0.29772597498E+03  0.95135137532E+02 0.  0.
      -11    1    3    3    0    0 -0.58864454564E+02 -0.24945049814E+02 -0.35041708080E+02  0.72905423848E+02  0.00000000000E+00 0.  1.
       11    1    3    3    0    0  0.31491189248E+01  0.18442845557E+02 -0.52342364774E+02  0.55585777429E+02  0.00000000000E+00 0. -1.
      -13    1    4    4    0    0 -0.24007097706E+01 -0.27738739538E+02 -0.18295342104E+03  0.18505986964E+03  0.00000000000E+00 0.  1.
       13    1    4    4    0    0  0.48814539817E+02  0.35276639329E+02 -0.95217386613E+02  0.11266610534E+03  0.00000000000E+00 0. -1.
        4    1    1    2  502    0 -0.98797325958E+01 -0.95732143344E+02 -0.57952784242E+03  0.58746469896E+03  0.00000000000E+00 0. -1.
       -2    1    1    2    0  501  0.19181238188E+02  0.94696447809E+02 -0.58669319103E+02  0.11303727761E+03  0.00000000000E+00 0.  1.
<mgrwt>
<rscale>  0 0.82565096E+02</rscale>
<asrwt>0</asrwt>
<pdfrwt beam="1">  1        3 0.16388240E+00 0.73179517E+02</pdfrwt>
<pdfrwt beam="2">  1       -1 0.94590085E-02 0.93154415E+02</pdfrwt>
<totfact> 0.78423930E+01</totfact>
</mgrwt>
</event>
<event>
11   0  0.7688500E-08  0.9990494E+02  0.7546771E-02  0.1288230E+00
       -2   -1    0    0    0  501  0.00000000000E+00  0.00000000000E+00  0.14969324512E+04  0.14969324512E+04  0.00000000000E+00 0.  1.
        1   -1    0    0  501    0  0.00000000000E+00  0.00000000000E+00 -0.38897324271E+02  0.38897324271E+02  0.00000000000E+00 0. -1.
       23    2    1    2    0    0 -0.63601360510E+01  0.22228038072E+02  0.56277742461E+03  0.57062576945E+03  0.91437421800E+02 0.  0.
      -24    2    1    2    0    0  0.16086624108E+02  0.27729467400E+02  0.26854701417E+02  0.90399700981E+02  0.80145044212E+02 0.  0.
       23    2    1    2    0    0 -0.97264880574E+01 -0.49957505472E+02  0.86840300090E+03  0.87480430503E+03  0.92565885799E+02 0.  0.
      -11    1    5    5    0    0  0.10855292918E+02 -0.40370235995E+02  0.14148235200E+03  0.14752914717E+03  0.00000000000E+00 0. -1.
       11    1    5    5    0    0 -0.20581780975E+02 -0.95872694768E+01  0.72692064890E+03  0.72727515786E+03  0.00000000000E+00 0.  1.
      -13    1    3    3    0    0  0.39351519166E+02 -0.27621893448E+01  0.31278069457E+03  0.31525852034E+03  0.00000000000E+00 0. -1.
       13    1    3    3    0    0 -0.45711655217E+02  0.24990227417E+02  0.24999673004E+03  0.25536724911E+03  0.00000000000E+00 0.  1.
        1    1    4    4  502    0  0.19810455059E+02 -0.25861077097E+02  0.11132780886E+02  0.34426563123E+02  0.00000000000E+00 0. -1.
       -2    1    4    4    0  502 -0.37238309504E+01  0.53590544497E+02  0.15721920531E+02  0.55973137857E+02  0.00000000000E+00 0.  1.
<mgrwt>
<rscale>  0 0.96320016E+02</rscale>
<asrwt>0</asrwt>
<pdfrwt beam="1">  1        1 0.59842037E-02 0.99904942E+02</pdfrwt>
<pdfrwt beam="2">  1       -2 0.23029730E+00 0.99904942E+02</pdfrwt>
<totfact> 0.10758637E+02</totfact>
</mgrwt>
</event>
<event>
10   0  0.7688500E-08  0.9655315E+02  0.7546771E-02  0.1422009E+00
        1   -1    0    0  501    0  0.00000000000E+00  0.00000000000E+00  0.13595901798E+04  0.13595901798E+04  0.00000000000E+00 0. -1.
        2   -1    0    0  502    0  0.00000000000E+00  0.00000000000E+00 -0.91165760905E+03  0.91165760905E+03  0.00000000000E+00 0. -1.
       23    2    1    2    0    0 -0.33810541826E+02 -0.14464076271E+02 -0.17118039972E+03  0.19738019040E+03  0.91125452383E+02 0.  0.
       23    2    1    2    0    0 -0.28148925601E+02 -0.33234171151E+02  0.17992943589E+03  0.20775389869E+03  0.94287901551E+02 0.  0.
      -11    1    4    4    0    0 -0.41162101069E+02 -0.29485820421E+02  0.18610506282E+03  0.19286997324E+03  0.00000000000E+00 0. -1.
       11    1    4    4    0    0  0.13013175468E+02 -0.37483507305E+01 -0.61756269313E+01  0.14883925455E+02  0.00000000000E+00 0.  1.
      -13    1    3    3    0    0 -0.52758733443E+02  0.19227719946E+02 -0.12583186447E+03  0.13779276935E+03  0.00000000000E+00 0.  1.
       13    1    3    3    0    0  0.18948191616E+02 -0.33691796217E+02 -0.45348535249E+02  0.59587421048E+02  0.00000000000E+00 0. -1.
        2    1    1    2  501    0 -0.28275204953E+02  0.12397353061E+02  0.11491505950E+04  0.11495652533E+04  0.00000000000E+00 0. -1.
        1    1    1    2  502    0  0.90234672380E+02  0.35300894361E+02 -0.70996706043E+03  0.71654844647E+03  0.00000000000E+00 0. -1.
<mgrwt>
<rscale>  0 0.54598050E+02</rscale>
<asrwt>0</asrwt>
<pdfrwt beam="1">  1        2 0.14025502E+00 0.96553149E+02</pdfrwt>
<pdfrwt beam="2">  1        1 0.20916772E+00 0.30873639E+02</pdfrwt>
<totfact> 0.46379726E+01</totfact>
</mgrwt>
</event>
<event>
10   0  0.7688500E-08  0.1936439E+03  0.7546771E-02  0.1399600E+00
        1   -1    0    0  501    0  0.00000000000E+00  0.00000000000E+00  0.20273787139E+03  0.20273787139E+03  0.00000000000E+00 0. -1.
        2   -1    0    0  502    0  0.00000000000E+00  0.00000000000E+00 -0.13129912245E+04  0.13129912245E+04  0.00000000000E+00 0. -1.
       23    2    1    2    0    0 -0.19145730424E+03 -0.31628907464E+03 -0.90458098161E+03  0.98153643982E+03  0.91936675556E+02 0.  0.
       23    2    1    2    0    0 -0.30155817604E+02  0.41199606632E+02 -0.30215273682E+01  0.10630577789E+03  0.93193389584E+02 0.  0.
      -11    1    3    3    0    0 -0.96254524579E+02 -0.22374813054E+03 -0.65529164147E+03  0.69909605549E+03  0.00000000000E+00 0. -1.
       11    1    3    3    0    0 -0.95202779663E+02 -0.92540944108E+02 -0.24928934014E+03  0.28244038433E+03  0.00000000000E+00 0.  1.
      -13    1    4    4    0    0 -0.30524594713E+02  0.54611996915E+02 -0.34956141807E+02  0.71666958492E+02  0.00000000000E+00 0.  1.
       13    1    4    4    0    0  0.36877710870E+00 -0.13412390283E+02  0.31934614439E+02  0.34638819394E+02  0.00000000000E+00 0. -1.
        2    1    1    2  501    0  0.21770673427E+03  0.25717868598E+03 -0.14399117283E+03  0.36642947005E+03  0.00000000000E+00 0. -1.
        1    1    1    2  502    0  0.39063875732E+01  0.17910782031E+02 -0.58659671316E+02  0.61457408143E+02  0.00000000000E+00 0. -1.
<mgrwt>
<rscale>  0 0.59580590E+02</rscale>
<asrwt>0</asrwt>
<pdfrwt beam="1">  1        2 0.20199865E+00 0.18331830E+02</pdfrwt>
<pdfrwt beam="2">  1        1 0.31190442E-01 0.19364388E+03</pdfrwt>
<totfact> 0.41142963E+02</totfact>
</mgrwt>
</event>
<event>
11   0  0.7688500E-08  0.1825522E+03  0.7546771E-02  0.1180879E+00
        4   -1    0    0  501    0  0.00000000000E+00  0.00000000000E+00  0.29657231433E+03  0.29657231433E+03  0.00000000000E+00 0. -1.
       -3   -1    0    0    0  501  0.00000000000E+00  0.00000000000E+00 -0.73563619923E+03  0.73563619923E+03  0.00000000000E+00 0.  1.
       23    2    1    2    0    0  0.13390086991E+03  0.58431246335E+02  0.16758969379E+03  0.23947562217E+03  0.88986598101E+02 0.  0.
       24    2    1    2    0    0 -0.18353690309E+03 -0.13039427959E+03 -0.82653272138E+02  0.25326908994E+03  0.81395365848E+02 0.  0.
       23    2    1    2    0    0  0.49636033176E+02  0.71963033251E+02 -0.52400030655E+03  0.53946380145E+03  0.93821414764E+02 0.  0.
      -11    1    5    5    0    0 -0.21649555091E+02  0.25001311538E+02 -0.68894644098E+02  0.76421468185E+02  0.00000000000E+00 0.  1.
       11    1    5    5    0    0  0.71285588266E+02  0.46961721712E+02 -0.45510566245E+03  0.46304233326E+03  0.00000000000E+00 0. -1.
      -13    1    3    3    0    0 -0.91874518510E+01  0.17877075645E+02  0.88848625168E+01  0.21975893317E+02  0.00000000000E+00 0.  1.
       13    1    3    3    0    0  0.14308832176E+03  0.40554170690E+02  0.15870483127E+03  0.21749972886E+03  0.00000000000E+00 0. -1.
        2    1    4    4  502    0 -0.46156473080E+02  0.29094321592E+01 -0.43622272031E+01  0.46453351105E+02  0.00000000000E+00 0. -1.
       -1    1    4    4    0  502 -0.13738043001E+03 -0.13330371175E+03 -0.78291044935E+02  0.20681573884E+03  0.00000000000E+00 0.  1.
<mgrwt>
<rscale>  0 0.16712603E+03</rscale>
<asrwt>0</asrwt>
<pdfrwt beam="1">  1        4 0.45626510E-01 0.18255219E+03</pdfrwt>
<pdfrwt beam="2">  1       -3 0.11317480E+00 0.18255219E+03</pdfrwt>
<totfact> 0.65748143E+00</totfact>
</mgrwt>
</event>
<event>
11   0  0.7688500E-08  0.1073363E+03  0.7546771E-02  0.1271998E+00
       -2   -1    0    0    0  501  0.00000000000E+00  0.00000000000E+00  0.28864805854E+03  0.28864805854E+03  0.00000000000E+00 0.  1.
        2   -1    0    0  501    0  0.00000000000E+00  0.00000000000E+00 -0.14512410804E+03  0.14512410804E+03  0.00000000000E+00 0. -1.
       23    2    1    2    0    0  0.23518421697E+02  0.33849612270E+02 -0.62824166390E+02  0.11951678646E+03  0.92943391126E+02 0.  0.
       23    2    1    2    0    0  0.18938119628E+02 -0.56430873005E+02  0.18920076384E+03  0.21844854334E+03  0.91540926615E+02 0.  0.
       23    2    1    2    0    0 -0.42456541325E+02  0.22581260735E+02  0.17147353046E+02  0.95806836776E+02  0.81070629816E+02 0.  0.
      -11    1    3    3    0    0  0.57180209769E+02  0.51825419685E+01 -0.33747389216E+02  0.66598208755E+02  0.00000000000E+00 0. -1.
       11    1    3    3    0    0 -0.33661788072E+02  0.28667070302E+02 -0.29076777174E+02  0.52918577709E+02  0.00000000000E+00 0.  1.
      -13    1    4    4    0    0  0.40042253638E+02  0.68052696411E+01  0.52672370507E+02  0.66513700740E+02  0.00000000000E+00 0. -1.
       13    1    4    4    0    0 -0.21104134010E+02 -0.63236142646E+02  0.13652839334E+03  0.15193484260E+03  0.00000000000E+00 0.  1.
        3    1    5    5  502    0 -0.39179721775E+02  0.46446216580E+02 -0.76398515888E+01  0.61242705404E+02  0.00000000000E+00 0. -1.
       -3    1    5    5    0  502 -0.32768195505E+01 -0.23864955845E+02  0.24787204635E+02  0.34564131372E+02  0.00000000000E+00 0.  1.
<mgrwt>
<rscale>  0 0.10405222E+03</rscale>
<asrwt>0</asrwt>
<pdfrwt beam="1">  1        2 0.22326786E-01 0.10733634E+03</pdfrwt>
<pdfrwt beam="2">  1       -2 0.44407394E-01 0.10733634E+03</pdfrwt>
<totfact> 0.11577132E+03</totfact>
</mgrwt>
</event>
<event>
10   0  0.7688500E-08  0.1948088E+03  0.7546771E-02  0.1254704E+00
        2   -1    0    0  502    0  0.00000000000E+00  0.00000000000E+00  0.23459874713E+04  0.23459874713E+04  0.00000000000E+00 0. -1.
        1   -1    0    0  501    0  0.00000000000E+00  0.00000000000E+00 -0.70046690189E+03  0.70046690189E+03  0.00000000000E+00 0. -1.
       23    2    1    2    0    0 -0.15437045233E+03 -0.40630389573E+03  0.17475606059E+04  0.18032106053E+04  0.93205813045E+02 0.  0.
       23    2    1    2    0    0  0.18697816395E+03  0.53452828078E+03 -0.41789160281E+03  0.70953898670E+03  0.90171310302E+02 0.  0.
      -11    1    4    4    0    0  0.81834952641E+02  0.29551607068E+03 -0.27496578866E+03  0.41186513866E+03  0.00000000000E+00 0.  1.
       11    1    4    4    0    0  0.10514321131E+03  0.23901221010E+03 -0.14292581415E+03  0.29767384805E+03  0.00000000000E+00 0. -1.
      -13    1    3    3    0    0 -0.69055031385E+02 -0.10085400217E+03  0.61810308523E+03  0.63007265541E+03  0.00000000000E+00 0.  1.
       13    1    3    3    0    0 -0.85315420949E+02 -0.30544989356E+03  0.11294575206E+04  0.11731379499E+04  0.00000000000E+00 0. -1.
        2    1    1    2  501    0 -0.41377347263E+02 -0.19344991430E+03 -0.13076609778E+02  0.19825728721E+03  0.00000000000E+00 0. -1.
        1    1    1    2  502    0  0.87696356503E+01  0.65225529248E+02  0.32892817612E+03  0.33544749398E+03  0.00000000000E+00 0. -1.
<mgrwt>
<rscale>  0 0.11322914E+03</rscale>
<asrwt>0</asrwt>
<pdfrwt beam="1">  1        2 0.36092115E+00 0.65812432E+02</pdfrwt>
<pdfrwt beam="2">  1        1 0.10776414E+00 0.19480877E+03</pdfrwt>
<totfact> 0.22759616E+01</totfact>
</mgrwt>
</event>
<event>
10   0  0.7688500E-08  0.1725647E+03  0.7546771E-02  0.1236800E+00
        2   -1    0    0  502    0  0.00000000000E+00  0.00000000000E+00  0.13702686041E+04  0.13702686041E+04  0.00000000000E+00 0. -1.
       -4   -1    0    0    0  501  0.00000000000E+00  0.00000000000E+00 -0.10369218341E+04  0.10369218341E+04  0.00000000000E+00 0.  1.
       23    2    1    2    0    0 -0.56317873011E+01  0.37313323454E+02  0.80882557383E+02  0.12871664044E+03  0.92746882975E+02 0.  0.
       23    2    1    2    0    0 -0.10363657831E+03 -0.82631316820E+02 -0.15908092762E+03  0.22086367220E+03  0.76847545696E+02 0.  0.
      -11    1    3    3    0    0  0.79071553532E+01  0.57836238050E+02  0.17824519873E+02  0.61034965768E+02  0.00000000000E+00 0.  1.
       11    1    3    3    0    0 -0.13538942654E+02 -0.20522914596E+02  0.63058037510E+02  0.67681674671E+02  0.00000000000E+00 0. -1.
      -13    1    4    4    0    0  0.10252590221E+02 -0.15279002635E+02 -0.34646721391E+02  0.39229565775E+02  0.00000000000E+00 0.  1.
       13    1    4    4    0    0 -0.11388916853E+03 -0.67352314185E+02 -0.12443420623E+03  0.18163410642E+03  0.00000000000E+00 0. -1.
        1    1    1    2  502    0 -0.23284036026E+02 -0.85856439092E+02  0.12223768848E+04  0.12256095312E+04  0.00000000000E+00 0. -1.
       -3    1    1    2    0  501  0.13255240164E+03  0.13117443246E+03 -0.81083174461E+03  0.83200059434E+03  0.00000000000E+00 0.  1.
<mgrwt>
<rscale>  0 0.12389898E+03</rscale>
<asrwt>0</asrwt>
<pdfrwt beam="1">  1        2 0.21081055E+00 0.88957712E+02</pdfrwt>
<pdfrwt beam="2">  1       -4 0.15952644E+00 0.17256465E+03</pdfrwt>
<totfact> 0.24768969E+00</totfact>
</mgrwt>
</event>
<event>
10   0  0.7688500E-08  0.1783892E+03  0.7546771E-02  0.1260615E+00
       -2   -1    0    0    0  501  0.00000000000E+00  0.00000000000E+00  0.20220796720E+03  0.20220796720E+03  0.00000000000E+00 0.  1.
        2   -1    0    0  502    0  0.00000000000E+00  0.00000000000E+00 -0.29051035662E+04  0.29051035662E+04  0.00000000000E+00 0. -1.
       23    2    1    2    0    0  0.81676770946E+02  0.87824522182E+02 -0.63804642171E+03  0.65572966200E+03  0.92162420576E+02 0.  0.
       23    2    1    2    0    0  0.26830982865E+02  0.46460726465E+02 -0.42294611283E+02  0.11804181640E+03  0.96262846056E+02 0.  0.
      -11    1    3    3    0    0  0.14778165654E+02  0.39781299952E+02 -0.70871411535E+02  0.82605707907E+02  0.00000000000E+00 0. -1.
       11    1    3    3    0    0  0.66898605292E+02  0.48043222231E+02 -0.56717501017E+03  0.57312395409E+03  0.00000000000E+00 0.  1.
      -13    1    4    4    0    0 -0.30733765701E+02  0.42236801064E+02 -0.24064437800E+02  0.57511815177E+02  0.00000000000E+00 0.  1.
       13    1    4    4    0    0  0.57564748565E+02  0.42239254008E+01 -0.18230173483E+02  0.60530001226E+02  0.00000000000E+00 0. -1.
        1    1    1    2  502    0 -0.87904306527E+02 -0.19887798117E+03 -0.21649425070E+04  0.21758344783E+04  0.00000000000E+00 0. -1.
       -1    1    1    2    0  501 -0.20603447284E+02  0.64592732518E+02  0.14238794105E+03  0.15770557660E+03  0.00000000000E+00 0.  1.
<mgrwt>
<rscale>  0 0.10997562E+03</rscale>
<asrwt>0</asrwt>
<pdfrwt beam="1">  1        2 0.44693901E+00 0.17838924E+03</pdfrwt>
<pdfrwt beam="2">  1       -2 0.31108918E-01 0.67799138E+02</pdfrwt>
<totfact> 0.23757173E+01</totfact>
</mgrwt>
</event>
<event>
11   0  0.7688500E-08  0.6293912E+03  0.7546771E-02  0.9846238E-01
       -1   -1    0    0    0  501  0.00000000000E+00  0.00000000000E+00  0.12101892851E+03  0.12101892851E+03  0.00000000000E+00 0.  1.
        1   -1    0    0  501    0  0.00000000000E+00  0.00000000000E+00 -0.81832911844E+03  0.81832911844E+03  0.00000000000E+00 0. -1.
       23    2    1    2    0    0  0.58253132071E+02  0.13563996185E+02 -0.82992254076E+01  0.10831889436E+03  0.89926060427E+02 0.  0.
       23    2    1    2    0    0 -0.11741708024E+03 -0.12585213211E+02 -0.70449278348E+03  0.71985125401E+03  0.89053846575E+02 0.  0.
       23    2    1    2    0    0  0.59163948169E+02 -0.97878297383E+00  0.15481818960E+02  0.11117789859E+03  0.92841303506E+02 0.  0.
      -11    1    5    5    0    0 -0.24813171157E+02  0.61046837078E+01  0.35384759536E+00  0.25555544098E+02  0.00000000000E+00 0. -1.
       11    1    5    5    0    0  0.83977119326E+02 -0.70834666817E+01  0.15127971364E+02  0.85622354488E+02  0.00000000000E+00 0.  1.
      -13    1    4    4    0    0  0.24482781754E+01 -0.25769491593E+02 -0.16724748568E+03  0.16923883192E+03  0.00000000000E+00 0.  1.
       13    1    4    4    0    0 -0.11986535842E+03  0.13184278382E+02 -0.53724529781E+03  0.55061242209E+03  0.00000000000E+00 0. -1.
        3    1    3    3  502    0 -0.30058719211E+01  0.15813405979E+02 -0.37210548414E+02  0.40542866055E+02  0.00000000000E+00 0. -1.
       -3    1    3    3    0  502  0.61259003992E+02 -0.22494097937E+01  0.28911323007E+02  0.67776028303E+02  0.00000000000E+00 0.  1.
<mgrwt>
<rscale>  0 0.62939118E+03</rscale>
<asrwt>0</asrwt>
<pdfrwt beam="1">  1        1 0.12589679E+00 0.62939118E+03</pdfrwt>
<pdfrwt beam="2">  1       -1 0.18618297E-01 0.62939118E+03</pdfrwt>
<totfact> 0.49690319E+02</totfact>
</mgrwt>
</event>
<event>
11   0  0.7688500E-08  0.1202564E+03  0.7546771E-02  0.1252311E+00
       -1   -1    0    0    0  501  0.00000000000E+00  0.00000000000E+00  0.85093820665E+02  0.85093820665E+02  0.00000000000E+00 0.  1.
        1   -1    0    0  501    0  0.00000000000E+00  0.00000000000E+00 -0.35466055814E+03  0.35466055814E+03  0.00000000000E+00 0. -1.
       23    2    1    2    0    0  0.62135321244E+02 -0.67341656468E+02 -0.84145363228E+02  0.15602274157E+03  0.94164520350E+02 0.  0.
       23    2    1    2    0    0 -0.21333267525E+02  0.57464357751E+02 -0.75664815377E+02  0.13584375378E+03  0.94715893279E+02 0.  0.
       23    2    1    2    0    0 -0.40802053720E+02  0.98772987162E+01 -0.10975655887E+03  0.14788788345E+03  0.89788391455E+02 0.  0.
      -11    1    3    3    0    0  0.46336565322E+02  0.35248997264E+01 -0.66798752353E+02  0.81373063847E+02  0.00000000000E+00 0. -1.
       11    1    3    3    0    0  0.15798755922E+02 -0.70866556194E+02 -0.17346610875E+02  0.74649677724E+02  0.00000000000E+00 0.  1.
      -13    1    5    5    0    0  0.16226778287E+02 -0.26204142598E+02 -0.43519518055E+02  0.53328359010E+02  0.00000000000E+00 0.  1.
       13    1    5    5    0    0 -0.57028832007E+02  0.36081441314E+02 -0.66237040814E+02  0.94559524445E+02  0.00000000000E+00 0. -1.
        3    1    4    4  502    0 -0.59816605549E+01  0.76107856582E+02 -0.80791406030E+02  0.11115501511E+03  0.00000000000E+00 0. -1.
       -3    1    4    4    0  502 -0.15351606970E+02 -0.18643498831E+02  0.51265906525E+01  0.24688738666E+02  0.00000000000E+00 0.  1.
<mgrwt>
<rscale>  0 0.11458269E+03</rscale>
<asrwt>0</asrwt>
<pdfrwt beam="1">  1        1 0.54563163E-01 0.12025641E+03</pdfrwt>
<pdfrwt beam="2">  1       -1 0.13091357E-01 0.12025641E+03</pdfrwt>
<totfact> 0.27332378E+03</totfact>
</mgrwt>
</event>
<event>
10   0  0.7688500E-08  0.2356664E+03  0.7546771E-02  0.1206185E+00
        2   -1    0    0  502    0  0.00000000000E+00  0.00000000000E+00  0.28311036786E+03  0.28311036786E+03  0.00000000000E+00 0. -1.
        1   -1    0    0  501    0  0.00000000000E+00  0.00000000000E+00 -0.82859633887E+03  0.82859633887E+03  0.00000000000E+00 0. -1.
       23    2    1    2    0    0  0.51257190841E+02  0.25556369758E+03 -0.52738791788E+03  0.59519202554E+03  0.90418074574E+02 0.  0.
       23    2    1    2    0    0 -0.10020512911E+03 -0.12978070029E+03 -0.11723034224E+03  0.22094746251E+03  0.90502651798E+02 0.  0.
      -11    1    3    3    0    0  0.23871786585E+02  0.22485402931E+03 -0.38017814257E+03  0.44233993351E+03  0.00000000000E+00 0. -1.
       11    1    3    3    0    0  0.27385404256E+02  0.30709668275E+02 -0.14720977531E+03  0.15285209203E+03  0.00000000000E+00 0.  1.
      -13    1    4    4    0    0  0.16167051844E+02 -0.29240227988E+02 -0.18447852823E+02  0.38166579253E+02  0.00000000000E+00 0.  1.
       13    1    4    4    0    0 -0.11637218095E+03 -0.10054047230E+03 -0.98782489418E+02  0.18278088326E+03  0.00000000000E+00 0. -1.
        2    1    1    2  501    0 -0.38660444583E+02 -0.14533232703E+03 -0.14129177247E+02  0.15104882953E+03  0.00000000000E+00 0. -1.
        1    1    1    2  502    0  0.87608382850E+02  0.19549329730E+02  0.11326146636E+03  0.14451838914E+03  0.00000000000E+00 0. -1.
<mgrwt>
<rscale>  0 0.14544462E+03</rscale>
<asrwt>0</asrwt>
<pdfrwt beam="1">  1        2 0.43555441E-01 0.89763049E+02</pdfrwt>
<pdfrwt beam="2">  1        1 0.12747636E+00 0.23566643E+03</pdfrwt>
<totfact> 0.34674444E+02</totfact>
</mgrwt>
</event>
<event>
10   0  0.7688500E-08  0.6366506E+02  0.7546771E-02  0.1387556E+00
        2   -1    0    0  502    0  0.00000000000E+00  0.00000000000E+00  0.41949755551E+03  0.41949755551E+03  0.00000000000E+00 0. -1.
        1   -1    0    0  501    0  0.00000000000E+00  0.00000000000E+00 -0.18234004375E+03  0.18234004375E+03  0.00000000000E+00 0. -1.
       23    2    1    2    0    0 -0.10952977713E+02  0.11627511595E+03  0.17798385563E+03  0.23002035176E+03  0.87127716882E+02 0.  0.
       23    2    1    2    0    0  0.74230464867E+02 -0.51789071570E+02  0.88775211325E+02  0.15423740487E+03  0.87840019728E+02 0.  0.
      -11    1    3    3    0    0  0.36684042599E+02  0.36963091039E+02  0.50846066262E+02  0.72782632096E+02  0.00000000000E+00 0.  1.
       11    1    3    3    0    0 -0.47637020312E+02  0.79312024915E+02  0.12713778937E+03  0.15723771966E+03  0.00000000000E+00 0. -1.
      -13    1    4    4    0    0  0.38826546577E+02 -0.70316101166E+02  0.35949826737E+02  0.88001391152E+02  0.00000000000E+00 0.  1.
       13    1    4    4    0    0  0.35403918290E+02  0.18527029596E+02  0.52825384588E+02  0.66236013715E+02  0.00000000000E+00 0. -1.
        2    1    1    2  501    0 -0.18916977516E+01 -0.63541223150E+02 -0.10352668621E+03  0.12148596757E+03  0.00000000000E+00 0. -1.
        1    1    1    2  502    0 -0.61385789403E+02 -0.94482123418E+00  0.73925131013E+02  0.96093875055E+02  0.00000000000E+00 0. -1.
<mgrwt>
<rscale>  0 0.62518741E+02</rscale>
<asrwt>0</asrwt>
<pdfrwt beam="1">  1        2 0.64538085E-01 0.61393060E+02</pdfrwt>
<pdfrwt beam="2">  1        1 0.28052314E-01 0.63665063E+02</pdfrwt>
<totfact> 0.16658566E+03</totfact>
</mgrwt>
</event>
<event>
10   0  0.7688500E-08  0.1546434E+03  0.7546771E-02  0.1205626E+00
        1   -1    0    0  502    0  0.00000000000E+00  0.00000000000E+00  0.76253930188E+03  0.76253930188E+03  0.00000000000E+00 0. -1.
       -1   -1    0    0    0  501  0.00000000000E+00  0.00000000000E+00 -0.41688074582E+03  0.41688074582E+03  0.00000000000E+00 0.  1.
       23    2    1    2    0    0 -0.16187137844E+03 -0.33392236839E+02  0.35479752510E+03  0.40209274929E+03  0.92086429910E+02 0.  0.
       23    2    1    2    0    0  0.17823275289E+02  0.26622898271E+02 -0.13508679471E+03  0.16566472786E+03  0.90387566060E+02 0.  0.
      -11    1    3    3    0    0 -0.11110815402E+02 -0.35254669730E+02  0.91468957269E+02  0.98655522402E+02  0.00000000000E+00 0.  1.
       11    1    3    3    0    0 -0.15076056304E+03  0.18624328903E+01  0.26332856783E+03  0.30343722689E+03  0.00000000000E+00 0. -1.
      -13    1    4    4    0    0 -0.68534773879E+01 -0.27458428839E+02 -0.79080323285E+02  0.83991862686E+02  0.00000000000E+00 0. -1.
       13    1    4    4    0    0  0.24676752677E+02  0.54081327109E+02 -0.56006471426E+02  0.81672865177E+02  0.00000000000E+00 0.  1.
        2    1    1    2  502    0 -0.10919847972E+03  0.83526601290E+02  0.27535934945E+03  0.30777227364E+03  0.00000000000E+00 0. -1.
       -2    1    1    2    0  501  0.25324658287E+03 -0.76757262722E+02 -0.14941152378E+03  0.30389029691E+03  0.00000000000E+00 0.  1.
<mgrwt>
<rscale>  0 0.14588219E+03</rscale>
<asrwt>0</asrwt>
<pdfrwt beam="1">  1        1 0.11731374E+00 0.13761737E+03</pdfrwt>
<pdfrwt beam="2">  1       -1 0.64135499E-01 0.15464336E+03</pdfrwt>
<totfact> 0.66985487E+01</totfact>
</mgrwt>
</event>
<event>
10   0  0.7688500E-08  0.1446497E+03  0.7546771E-02  0.1260746E+00
        2   -1    0    0  502    0  0.00000000000E+00  0.00000000000E+00  0.71299559394E+03  0.71299559394E+03  0.00000000000E+00 0. -1.
        1   -1    0    0  501    0  0.00000000000E+00  0.00000000000E+00 -0.63756788293E+03  0.63756788293E+03  0.00000000000E+00 0. -1.
       23    2    1    2    0    0 -0.16683853196E+02 -0.12319256406E+03 -0.53725660437E+03  0.55904060570E+03  0.91798589776E+02 0.  0.
       23    2    1    2    0    0  0.11207687552E+02  0.51190187456E+02 -0.13885561984E+02  0.10858448078E+03  0.94083649385E+02 0.  0.
      -11    1    4    4    0    0  0.51102481285E+02  0.15771712653E+02 -0.13812932650E+02  0.55235926912E+02  0.00000000000E+00 0. -1.
       11    1    4    4    0    0 -0.39894793732E+02  0.35418474802E+02 -0.72629333672E-01  0.53348553863E+02  0.00000000000E+00 0.  1.
      -13    1    3    3    0    0 -0.20472101607E+02 -0.68004719096E+02 -0.45108466326E+03  0.45664113064E+03  0.00000000000E+00 0. -1.
       13    1    3    3    0    0  0.37882484107E+01 -0.55187844965E+02 -0.86171941106E+02  0.10239947506E+03  0.00000000000E+00 0.  1.
        2    1    1    2  501    0  0.87746558370E+02  0.86313794667E+02  0.12857880729E+03  0.17799449244E+03  0.00000000000E+00 0. -1.
        1    1    1    2  502    0 -0.82270392726E+02 -0.14311418062E+02  0.49799107007E+03  0.50494389795E+03  0.00000000000E+00 0. -1.
<mgrwt>
<rscale>  0 0.10990497E+03</rscale>
<asrwt>0</asrwt>
<pdfrwt beam="1">  1        2 0.10969163E+00 0.83505893E+02</pdfrwt>
<pdfrwt beam="2">  1        1 0.98087367E-01 0.14464970E+03</pdfrwt>
<totfact> 0.19241299E+02</totfact>
</mgrwt>
</event>
<event>
10   0  0.7688500E-08  0.1035894E+03  0.7546771E-02  0.1359871E+00
        2   -1    0    0  501    0  0.00000000000E+00  0.00000000000E+00  0.21167132587E+03  0.21167132587E+03  0.00000000000E+00 0. -1.
        3   -1    0    0  502    0  0.00000000000E+00  0.00000000000E+00 -0.22629706585E+03  0.22629706585E+03  0.00000000000E+00 0. -1.
       23    2    1    2    0    0  0.56827922564E+02 -0.21323015913E+01 -0.76342262696E+02  0.13178223817E+03  0.91128797476E+02 0.  0.
       23    2    1    2    0    0 -0.15468504716E+02 -0.71371065342E+02 -0.69132286709E+02  0.13572473449E+03  0.91152766713E+02 0.  0.
      -11    1    4    4    0    0 -0.35615370206E+02  0.66390221620E+01 -0.21542069904E+02  0.42149638029E+02  0.00000000000E+00 0.  1.
       11    1    4    4    0    0  0.20146865489E+02 -0.78010087504E+02 -0.47590216805E+02  0.93575096457E+02  0.00000000000E+00 0. -1.
      -13    1    3    3    0    0 -0.28515328477E+01  0.19078639044E+02  0.12269686363E+02  0.22861997086E+02  0.00000000000E+00 0.  1.
       13    1    3    3    0    0  0.59679455412E+02 -0.21210940635E+02 -0.88611949059E+02  0.10892024108E+03  0.00000000000E+00 0. -1.
        2    1    1    2  501    0 -0.45492904000E+02  0.13275769939E+02  0.71691202665E+02  0.85938809169E+02  0.00000000000E+00 0. -1.
        3    1    1    2  502    0  0.41334861521E+01  0.60227596995E+02  0.59157606752E+02  0.84522609899E+02  0.00000000000E+00 0. -1.
<mgrwt>
<rscale>  0 0.70065290E+02</rscale>
<asrwt>0</asrwt>
<pdfrwt beam="1">  1        2 0.32564819E-01 0.47390404E+02</pdfrwt>
<pdfrwt beam="2">  1        3 0.34814933E-01 0.10358943E+03</pdfrwt>
<totfact> 0.74152784E+02</totfact>
</mgrwt>
</event>
<event>
11   0  0.7688500E-08  0.1046201E+03  0.7546771E-02  0.1276999E+00
       -1   -1    0    0    0  501  0.00000000000E+00  0.00000000000E+00  0.53251219163E+02  0.53251219163E+02  0.00000000000E+00 0.  1.
        2   -1    0    0  501    0  0.00000000000E+00  0.00000000000E+00 -0.10863149631E+04  0.10863149631E+04  0.00000000000E+00 0. -1.
       24    2    1    2    0    0 -0.20756582815E+02  0.37039216635E+02 -0.80473269987E+01  0.91124205277E+02  0.80225444943E+02 0.  0.
       23    2    1    2    0    0 -0.30082125720E+02  0.13917603966E+02 -0.54649190004E+03  0.55499184493E+03  0.90906089697E+02 0.  0.
       23    2    1    2    0    0  0.50838708536E+02 -0.50956820601E+02 -0.47852451685E+03  0.49345013201E+03  0.96571981957E+02 0.  0.
      -11    1    5    5    0    0 -0.37214275639E-02 -0.28684639011E+02 -0.30009870042E+02  0.41513863094E+02  0.00000000000E+00 0.  1.
       11    1    5    5    0    0  0.50842429963E+02 -0.22272181591E+02 -0.44851464681E+03  0.45193626892E+03  0.00000000000E+00 0. -1.
      -13    1    4    4    0    0 -0.73469878808E+01  0.32826764566E+02 -0.49066547439E+03  0.49181722464E+03  0.00000000000E+00 0.  1.
       13    1    4    4    0    0 -0.22735137840E+02 -0.18909160600E+02 -0.55826425655E+02  0.63174620288E+02  0.00000000000E+00 0. -1.
        2    1    3    3  502    0 -0.22422752291E+02 -0.10889448530E+02 -0.29470734218E+02  0.38599016632E+02  0.00000000000E+00 0. -1.
       -1    1    3    3    0  502  0.16661694757E+01  0.47928665165E+02  0.21423407220E+02  0.52525188644E+02  0.00000000000E+00 0.  1.
<mgrwt>
<rscale>  0 0.10158459E+03</rscale>
<asrwt>0</asrwt>
<pdfrwt beam="1">  1        2 0.16712538E+00 0.10462007E+03</pdfrwt>
<pdfrwt beam="2">  1       -1 0.81924953E-02 0.10462007E+03</pdfrwt>
<totfact> 0.21769299E+03</totfact>
</mgrwt>
</event>
<event>
11   0  0.7688500E-08  0.9531969E+02  0.7546771E-02  0.1297062E+00
       -1   -1    0    0    0  501  0.00000000000E+00  0.00000000000E+00  0.25534727102E+03  0.25534727102E+03  0.00000000000E+00 0.  1.
        2   -1    0    0  501    0  0.00000000000E+00  0.00000000000E+00 -0.21413690719E+03  0.21413690719E+03  0.00000000000E+00 0. -1.
       23    2    1    2    0    0  0.27255792393E+02 -0.11644670011E+02  0.16295925758E+03  0.18941248275E+03  0.91885213355E+02 0.  0.
       23    2    1    2    0    0 -0.59270196109E+01 -0.82884803121E+01  0.36561098325E+02  0.10108148726E+03  0.93685242638E+02 0.  0.
       24    2    1    2    0    0 -0.21328772782E+02  0.19933150323E+02 -0.15830999208E+03  0.17899020820E+03  0.78250840299E+02 0.  0.
      -11    1    3    3    0    0  0.29975109015E+02  0.16131391616E+02  0.12306437219E+02  0.36196372097E+02  0.00000000000E+00 0. -1.
       11    1    3    3    0    0 -0.27193166220E+01 -0.27776061627E+02  0.15065282036E+03  0.15321611066E+03  0.00000000000E+00 0.  1.
      -13    1    4    4    0    0 -0.19408579044E+02 -0.12889223106E+02  0.65122534770E+02  0.69164799917E+02  0.00000000000E+00 0. -1.
       13    1    4    4    0    0  0.13481559434E+02  0.46007427935E+01 -0.28561436444E+02  0.31916687340E+02  0.00000000000E+00 0.  1.
        2    1    5    5  502    0 -0.50866934860E+02  0.12379720389E+02 -0.11069671500E+03  0.12245188954E+03  0.00000000000E+00 0. -1.
       -1    1    5    5    0  502  0.29538162078E+02  0.75534299345E+01 -0.47613277078E+02  0.56538318659E+02  0.00000000000E+00 0.  1.
<mgrwt>
<rscale>  0 0.92433896E+02</rscale>
<asrwt>0</asrwt>
<pdfrwt beam="1">  1        2 0.32944140E-01 0.95319687E+02</pdfrwt>
<pdfrwt beam="2">  1       -1 0.39284196E-01 0.95319687E+02</pdfrwt>
<totfact> 0.11280527E+03</totfact>
</mgrwt>
</event>
<event>
10   0  0.7688500E-08  0.8856139E+02  0.7546771E-02  0.1326544E+00
        2   -1    0    0  502    0  0.00000000000E+00  0.00000000000E+00  0.20326766746E+04  0.20326766746E+04  0.00000000000E+00 0. -1.
        1   -1    0    0  501    0  0.00000000000E+00  0.00000000000E+00 -0.36648387920E+02  0.36648387920E+02  0.00000000000E+00 0. -1.
       23    2    1    2    0    0  0.12966519557E+03 -0.45712498171E+02  0.10950944055E+04  0.11079276193E+04  0.96794407546E+02 0.  0.
       23    2    1    2    0    0 -0.55286325092E+02 -0.46619875470E+02  0.33103733932E+03  0.35042029488E+03  0.89323415236E+02 0.  0.
      -11    1    3    3    0    0  0.13142408011E+03 -0.46449603036E+02  0.10966458803E+04  0.11054691498E+04  0.00000000000E+00 0. -1.
       11    1    3    3    0    0 -0.17588845437E+01  0.73710486558E+00 -0.15514747862E+01  0.24584695307E+01  0.00000000000E+00 0.  1.
      -13    1    4    4    0    0 -0.15555121044E+01  0.15210416334E+02  0.16053575854E+03  0.16126222792E+03  0.00000000000E+00 0.  1.
       13    1    4    4    0    0 -0.53730812988E+02 -0.61830291804E+02  0.17050158078E+03  0.18915806697E+03  0.00000000000E+00 0. -1.
        2    1    1    2  501    0 -0.73634396337E+02  0.60615862062E+01  0.63914295938E+02  0.97692396718E+02  0.00000000000E+00 0. -1.
        1    1    1    2  502    0 -0.74447413743E+00  0.86270787435E+02  0.50598224592E+03  0.51328475157E+03  0.00000000000E+00 0. -1.
<mgrwt>
<rscale>  0 0.80890192E+02</rscale>
<asrwt>0</asrwt>
<pdfrwt beam="1">  1        2 0.31271949E+00 0.88561395E+02</pdfrwt>
<pdfrwt beam="2">  1        1 0.56382135E-02 0.73883470E+02</pdfrwt>
<totfact> 0.13826917E+03</totfact>
</mgrwt>
</event>
<event>
11   0  0.7688500E-08  0.9618329E+02  0.7546771E-02  0.1289463E+00
       -2   -1    0    0    0  501  0.00000000000E+00  0.00000000000E+00  0.39644200153E+03  0.39644200153E+03  0.00000000000E+00 0.  1.
        2   -1    0    0  501    0  0.00000000000E+00  0.00000000000E+00 -0.25012867980E+03  0.25012867980E+03  0.00000000000E+00 0. -1.
       23    2    1    2    0    0 -0.17946150267E+02  0.25541456601E+02  0.35258244581E+03  0.36552000286E+03  0.91192439862E+02 0.  0.
       23    2    1    2    0    0  0.30187415706E+02  0.43897963264E+01 -0.96708218136E+02  0.13522695979E+03  0.89461169337E+02 0.  0.
       23    2    1    2    0    0 -0.12241265439E+02 -0.29931252928E+02 -0.10956090595E+03  0.14582371868E+03  0.90637940936E+02 0.  0.
      -11    1    3    3    0    0  0.33157943549E+02  0.17497938757E+02  0.83804115368E+02  0.91808261250E+02  0.00000000000E+00 0.  1.
       11    1    3    3    0    0 -0.51104093816E+02  0.80435178445E+01  0.26877833044E+03  0.27371174161E+03  0.00000000000E+00 0. -1.
      -13    1    4    4    0    0  0.13151831315E+01  0.19720274559E+02  0.11033418213E+02  0.22635265689E+02  0.00000000000E+00 0.  1.
       13    1    4    4    0    0  0.28872232574E+02 -0.15330478233E+02 -0.10774163635E+03  0.11259169410E+03  0.00000000000E+00 0. -1.
        3    1    5    5  502    0 -0.23914171896E+01 -0.21666401811E+02 -0.12433883420E+03  0.12623508836E+03  0.00000000000E+00 0. -1.
       -3    1    5    5    0  502 -0.98498482491E+01 -0.82648511163E+01  0.14777928251E+02  0.19588630322E+02  0.00000000000E+00 0.  1.
<mgrwt>
<rscale>  0 0.95764501E+02</rscale>
<asrwt>0</asrwt>
<pdfrwt beam="1">  1        2 0.38481335E-01 0.96183287E+02</pdfrwt>
<pdfrwt beam="2">  1       -2 0.60991077E-01 0.96183287E+02</pdfrwt>
<totfact> 0.34234886E+02</totfact>
</mgrwt>
</event>
<event>
10   0  0.7688500E-08  0.1637828E+03  0.7546771E-02  0.1215171E+00
        2   -1    0    0  502    0  0.00000000000E+00  0.00000000000E+00  0.46948097582E+04  0.46948097582E+04  0.00000000000E+00 0. -1.
        1   -1    0    0  501    0  0.00000000000E+00  0.00000000000E+00 -0.28472450578E+03  0.28472450578E+03  0.00000000000E+00 0. -1.
       23    2    1    2    0    0  0.55498286422E+02 -0.11264504866E+03  0.10338281086E+04  0.10438795321E+04  0.71518897031E+02 0.  0.
       23    2    1    2    0    0  0.83443301387E+02 -0.90659388288E+02  0.92259216919E+02  0.18049821685E+03  0.94265231908E+02 0.  0.
      -11    1    4    4    0    0  0.30627438023E+02 -0.40072068659E+02 -0.13224983118E+02  0.52141258375E+02  0.00000000000E+00 0. -1.
       11    1    4    4    0    0  0.52815863364E+02 -0.50587319628E+02  0.10548420004E+03  0.12835695847E+03  0.00000000000E+00 0.  1.
      -13    1    3    3    0    0  0.10240225382E+02 -0.89291553474E+01  0.38623850956E+03  0.38647739688E+03  0.00000000000E+00 0. -1.
       13    1    3    3    0    0  0.45258061040E+02 -0.10371589332E+03  0.64758959904E+03  0.65740213523E+03  0.00000000000E+00 0.  1.
        2    1    1    2  501    0 -0.24591404619E+02  0.17691323544E+03 -0.20059298022E+03  0.26858997332E+03  0.00000000000E+00 0. -1.
        1    1    1    2  502    0 -0.11435018319E+03  0.26391201514E+02  0.34845909071E+04  0.34865665417E+04  0.00000000000E+00 0. -1.
<mgrwt>
<rscale>  0 0.13863949E+03</rscale>
<asrwt>0</asrwt>
<pdfrwt beam="1">  1        2 0.72227842E+00 0.11735612E+03</pdfrwt>
<pdfrwt beam="2">  1        1 0.43803770E-01 0.16378275E+03</pdfrwt>
<totfact> 0.17305819E+00</totfact>
</mgrwt>
</event>
<event>
10   0  0.7688500E-08  0.5205842E+02  0.7546771E-02  0.1439595E+00
        2   -1    0    0  502    0  0.00000000000E+00  0.00000000000E+00  0.18875720866E+04  0.18875720866E+04  0.00000000000E+00 0. -1.
        1   -1    0    0  501    0  0.00000000000E+00  0.00000000000E+00 -0.48146185539E+03  0.48146185539E+03  0.00000000000E+00 0. -1.
       23    2    1    2    0    0  0.12023296585E+03 -0.42609597076E+02 -0.12040615790E+03  0.20441942697E+03  0.10496721117E+03 0.  0.
       23    2    1    2    0    0 -0.17180885726E+03  0.70738770490E+02  0.70027220605E+02  0.21616547235E+03  0.85448479963E+02 0.  0.
      -11    1    3    3    0    0  0.29359065183E+02  0.31254381020E+02 -0.11258277629E+02  0.44334409396E+02  0.00000000000E+00 0.  1.
       11    1    3    3    0    0  0.90873900663E+02 -0.73863978096E+02 -0.10914788028E+03  0.16008501757E+03  0.00000000000E+00 0. -1.
      -13    1    4    4    0    0 -0.13292595622E+03  0.58778738217E+02  0.89891517729E+02  0.17089392869E+03  0.00000000000E+00 0. -1.
       13    1    4    4    0    0 -0.38882901045E+02  0.11960032273E+02 -0.19864297124E+02  0.45271543666E+02  0.00000000000E+00 0.  1.
        2    1    1    2  501    0  0.44299948250E+02  0.23447310725E+02 -0.24302346674E+03  0.24813840328E+03  0.00000000000E+00 0. -1.
        1    1    1    2  502    0  0.72759431673E+01 -0.51576484139E+02  0.16995126352E+04  0.17003106394E+04  0.00000000000E+00 0. -1.
<mgrwt>
<rscale>  0 0.51081275E+02</rscale>
<asrwt>0</asrwt>
<pdfrwt beam="1">  1        2 0.29039571E+00 0.52058423E+02</pdfrwt>
<pdfrwt beam="2">  1        1 0.74071055E-01 0.50122468E+02</pdfrwt>
<totfact> 0.68039068E+01</totfact>
</mgrwt>
</event>
<event>
10   0  0.7688500E-08  0.1615908E+03  0.7546771E-02  0.1361847E+00
        1   -1    0    0  501    0  0.00000000000E+00  0.00000000000E+00  0.99225800404E+03  0.99225800404E+03  0.00000000000E+00 0. -1.
        4   -1    0    0  502    0  0.00000000000E+00  0.00000000000E+00 -0.38795748200E+03  0.38795748200E+03  0.00000000000E+00 0. -1.
       23    2    1    2    0    0  0.60837073970E+02 -0.11966692619E+01  0.74545611279E+02  0.12691496120E+03  0.82751299855E+02 0.  0.
       23    2    1    2    0    0 -0.17833105095E+02 -0.13500263126E+03 -0.29414830379E+03  0.33712654047E+03  0.92667953364E+02 0.  0.
      -11    1    3    3    0    0  0.53144294755E+02 -0.29833991504E+02  0.75767378070E+02  0.97237228948E+02  0.00000000000E+00 0.  1.
       11    1    3    3    0    0  0.76927792156E+01  0.28637322242E+02 -0.12217667909E+01  0.29677732247E+02  0.00000000000E+00 0. -1.
      -13    1    4    4    0    0 -0.14605096268E+02 -0.94772323241E+01 -0.12636961106E+03  0.12756333866E+03  0.00000000000E+00 0.  1.
       13    1    4    4    0    0 -0.32280088270E+01 -0.12552539894E+03 -0.16777869273E+03  0.20956320181E+03  0.00000000000E+00 0. -1.
        2    1    1    2  501    0  0.24838348672E+02  0.16610313326E+02  0.76665902869E+03  0.76724110445E+03  0.00000000000E+00 0. -1.
        3    1    1    2  502    0 -0.67842317547E+02  0.11958898720E+03  0.57244185864E+02  0.14893287993E+03  0.00000000000E+00 0. -1.
<mgrwt>
<rscale>  0 0.69486815E+02</rscale>
<asrwt>0</asrwt>
<pdfrwt beam="1">  1        4 0.59685766E-01 0.16159075E+03</pdfrwt>
<pdfrwt beam="2">  1        1 0.15265508E+00 0.29880530E+02</pdfrwt>
<totfact> 0.22985753E+01</totfact>
</mgrwt>
</event>
<event>
10   0  0.7688500E-08  0.1268350E+03  0.7546771E-02  0.1237606E+00
       -2   -1    0    0    0  501  0.00000000000E+00  0.00000000000E+00  0.18093048555E+03  0.18093048555E+03  0.00000000000E+00 0.  1.
       -1   -1    0    0    0  502  0.00000000000E+00  0.00000000000E+00 -0.21209583237E+04  0.21209583237E+04  0.00000000000E+00 0.  1.
       23    2    1    2    0    0  0.64666565607E+01  0.24291166863E+02 -0.16501866832E+03  0.18954423273E+03  0.89799648295E+02 0.  0.
       23    2    1    2    0    0  0.28997584693E+02  0.41343553377E+02 -0.53343723252E+02  0.11652720757E+03  0.90459316660E+02 0.  0.
      -11    1    4    4    0    0  0.58358892859E+02  0.16706481420E+02 -0.48885942500E+02  0.77940376386E+02  0.00000000000E+00 0. -1.
       11    1    4    4    0    0 -0.29361308166E+02  0.24637071956E+02 -0.44577807522E+01  0.38586831187E+02  0.00000000000E+00 0.  1.
      -13    1    3    3    0    0  0.90303927350E+01 -0.20902830912E+02 -0.13088401868E+03  0.13284992540E+03  0.00000000000E+00 0. -1.
       13    1    3    3    0    0 -0.25637361744E+01  0.45193997775E+02 -0.34134649642E+02  0.56694307335E+02  0.00000000000E+00 0.  1.
       -2    1    1    2    0  502  0.21751490617E+02 -0.17853967641E+03 -0.18241248315E+04  0.18329705247E+04  0.00000000000E+00 0.  1.
       -1    1    1    2    0  501 -0.57215731871E+02  0.11290495617E+03  0.10245938499E+03  0.16284684422E+03  0.00000000000E+00 0.  1.
<mgrwt>
<rscale>  0 0.12339072E+03</rscale>
<asrwt>0</asrwt>
<pdfrwt beam="1">  1       -2 0.27835459E-01 0.12683500E+03</pdfrwt>
<pdfrwt beam="2">  1       -1 0.32630128E+00 0.12003997E+03</pdfrwt>
<totfact> 0.25323413E+00</totfact>
</mgrwt>
</event>
<event>
10   0  0.7688500E-08  0.1094636E+03  0.7546771E-02  0.1392042E+00
        1   -1    0    0  501    0  0.00000000000E+00  0.00000000000E+00  0.10434291864E+04  0.10434291864E+04  0.00000000000E+00 0. -1.
        2   -1    0    0  502    0  0.00000000000E+00  0.00000000000E+00 -0.67169906835E+03  0.67169906835E+03  0.00000000000E+00 0. -1.
       23    2    1    2    0    0 -0.57946084319E+02 -0.42951839902E+02 -0.50305681243E+03  0.51760934060E+03  0.98237791620E+02 0.  0.
       23    2    1    2    0    0 -0.83148922966E+02 -0.17925259487E+02  0.33139909353E+03  0.35351436814E+03  0.88949373086E+02 0.  0.
      -11    1    4    4    0    0 -0.75829206854E+02  0.23543147039E+02  0.18849874512E+03  0.20453881122E+03  0.00000000000E+00 0. -1.
       11    1    4    4    0    0 -0.73197161121E+01 -0.41468406526E+02  0.14290034841E+03  0.14897555692E+03  0.00000000000E+00 0.  1.
      -13    1    3    3    0    0  0.22812255265E+02 -0.32043168280E+02 -0.13349007759E+03  0.13916452292E+03  0.00000000000E+00 0.  1.
       13    1    3    3    0    0 -0.80758339584E+02 -0.10908671622E+02 -0.36956673484E+03  0.37844481768E+03  0.00000000000E+00 0. -1.
        2    1    1    2  501    0  0.10665611532E+03  0.61342121213E+02  0.68617677069E+03  0.69712046548E+03  0.00000000000E+00 0. -1.
        1    1    1    2  502    0  0.34438891971E+02 -0.46502182358E+00 -0.14278893371E+03  0.14688408054E+03  0.00000000000E+00 0. -1.
<mgrwt>
<rscale>  0 0.61401550E+02</rscale>
<asrwt>0</asrwt>
<pdfrwt beam="1">  1        2 0.10333832E+00 0.34442031E+02</pdfrwt>
<pdfrwt beam="2">  1        1 0.16052757E+00 0.10946365E+03</pdfrwt>
<totfact> 0.10097532E+02</totfact>
</mgrwt>
</event>
<event>
10   0  0.7688500E-08  0.9180299E+02  0.7546771E-02  0.1309540E+00
       -1   -1    0    0    0  501  0.00000000000E+00  0.00000000000E+00  0.32330374198E+03  0.32330374198E+03  0.00000000000E+00 0.  1.
        1   -1    0    0  502    0  0.00000000000E+00  0.00000000000E+00 -0.75346128777E+03  0.75346128777E+03  0.00000000000E+00 0. -1.
       23    2    1    2    0    0 -0.55755848495E+02  0.19482414491E+03 -0.21329710503E+03  0.30779810871E+03  0.90437042357E+02 0.  0.
       23    2    1    2    0    0 -0.71475217784E+02 -0.26312731500E+03 -0.25281678169E+02  0.28831531519E+03  0.90232295046E+02 0.  0.
      -11    1    3    3    0    0  0.22776635639E+02  0.61038123570E+02 -0.46709759993E+02  0.80163765745E+02  0.00000000000E+00 0.  1.
       11    1    3    3    0    0 -0.78532484135E+02  0.13378602134E+03 -0.16658734504E+03  0.22763434297E+03  0.00000000000E+00 0. -1.
      -13    1    4    4    0    0 -0.85067737495E+02 -0.24522223954E+03 -0.38252314413E+02  0.26236178511E+03  0.00000000000E+00 0.  1.
       13    1    4    4    0    0  0.13592519712E+02 -0.17905075455E+02  0.12970636244E+02  0.25953530083E+02  0.00000000000E+00 0. -1.
        2    1    1    2  502    0  0.36754275938E+02  0.74425849325E+02 -0.31598298409E+03  0.32670373442E+03  0.00000000000E+00 0. -1.
       -2    1    1    2    0  501  0.90476790341E+02 -0.61226792353E+01  0.12440422150E+03  0.15394787143E+03  0.00000000000E+00 0.  1.
<mgrwt>
<rscale>  0 0.87294031E+02</rscale>
<asrwt>0</asrwt>
<pdfrwt beam="1">  1        1 0.11591712E+00 0.83006529E+02</pdfrwt>
<pdfrwt beam="2">  1       -1 0.49739037E-01 0.91802995E+02</pdfrwt>
<totfact> 0.11291437E+02</totfact>
</mgrwt>
</event>
<event>
10   0  0.7688500E-08  0.1519059E+03  0.7546771E-02  0.1232871E+00
        2   -1    0    0  502    0  0.00000000000E+00  0.00000000000E+00  0.90876383505E+03  0.90876383505E+03  0.00000000000E+00 0. -1.
        1   -1    0    0  501    0  0.00000000000E+00  0.00000000000E+00 -0.23267928127E+03  0.23267928127E+03  0.00000000000E+00 0. -1.
       23    2    1    2    0    0  0.53064614108E+02  0.74449225677E+02  0.89594253648E+02  0.17548611233E+03  0.12004043010E+03 0.  0.
       23    2    1    2    0    0  0.18018937913E+02  0.19337660605E+01  0.16693948070E+03  0.19524751799E+03  0.99621189950E+02 0.  0.
      -11    1    3    3    0    0  0.89702021082E+02  0.35829090403E+02  0.67546816146E+02  0.11786750475E+03  0.00000000000E+00 0.  1.
       11    1    3    3    0    0 -0.36637406975E+02  0.38620135275E+02  0.22047437503E+02  0.57618607575E+02  0.00000000000E+00 0. -1.
      -13    1    4    4    0    0 -0.39398430251E+01 -0.47064701683E+02  0.70264891590E+02  0.84662645232E+02  0.00000000000E+00 0. -1.
       13    1    4    4    0    0  0.21958780938E+02  0.48998467744E+02  0.96674589114E+02  0.11058487275E+03  0.00000000000E+00 0.  1.
        2    1    1    2  501    0 -0.15646526151E+02 -0.17590912741E+03 -0.12371620379E+03  0.21562591210E+03  0.00000000000E+00 0. -1.
        1    1    1    2  502    0 -0.55437025869E+02  0.99526135673E+02  0.54326702321E+03  0.55508357391E+03  0.00000000000E+00 0. -1.
<mgrwt>
<rscale>  0 0.12641738E+03</rscale>
<asrwt>0</asrwt>
<pdfrwt beam="1">  1        2 0.13980982E+00 0.10520565E+03</pdfrwt>
<pdfrwt beam="2">  1        1 0.35796813E-01 0.15190585E+03</pdfrwt>
<totfact> 0.51324145E+02</totfact>
</mgrwt>
</event>
<event>
10   0  0.7688500E-08  0.2346709E+03  0.7546771E-02  0.1128160E+00
       -3   -1    0    0    0  501  0.00000000000E+00  0.00000000000E+00  0.16467229308E+04  0.16467229308E+04  0.00000000000E+00 0.  1.
        1   -1    0    0  502    0  0.00000000000E+00  0.00000000000E+00 -0.89100760694E+03  0.89100760694E+03  0.00000000000E+00 0. -1.
       23    2    1    2    0    0  0.33306563874E+02  0.94986507299E+02  0.17414451582E+01  0.13504215563E+03  0.90008818458E+02 0.  0.
       23    2    1    2    0    0 -0.18483919644E+02 -0.12652732667E+03  0.30792958667E+03  0.34417244501E+03  0.85341794419E+02 0.  0.
      -11    1    4    4    0    0  0.10093256530E+02 -0.11671051236E+03  0.27785417734E+03  0.30153965143E+03  0.00000000000E+00 0.  1.
       11    1    4    4    0    0 -0.28577176174E+02 -0.98168143118E+01  0.30075409333E+02  0.42632793573E+02  0.00000000000E+00 0. -1.
      -13    1    3    3    0    0 -0.27605545193E+02  0.51338421628E+02 -0.10154162605E+02  0.59167615119E+02  0.00000000000E+00 0. -1.
       13    1    3    3    0    0  0.60912109067E+02  0.43648085670E+02  0.11895607764E+02  0.75874540511E+02  0.00000000000E+00 0.  1.
        2    1    1    2  502    0 -0.39168995047E+03 -0.57757976487E+02 -0.72446491991E+03  0.82559458654E+03  0.00000000000E+00 0. -1.
       -4    1    1    2    0  501  0.37686730624E+03  0.89298795858E+02  0.11705092120E+04  0.12329213506E+04  0.00000000000E+00 0.  1.
<mgrwt>
<rscale>  0 0.22785311E+03</rscale>
<asrwt>0</asrwt>
<pdfrwt beam="1">  1        1 0.13707809E+00 0.22123335E+03</pdfrwt>
<pdfrwt beam="2">  1       -3 0.25334199E+00 0.23467094E+03</pdfrwt>
<totfact> 0.83689155E-01</totfact>
</mgrwt>
</event>
<event>
10   0  0.7688500E-08  0.1434314E+03  0.7546771E-02  0.1343390E+00
        2   -1    0    0  502    0  0.00000000000E+00  0.00000000000E+00  0.31005782112E+04  0.31005782112E+04  0.00000000000E+00 0. -1.
        1   -1    0    0  501    0  0.00000000000E+00  0.00000000000E+00 -0.70552377351E+02  0.70552377351E+02  0.00000000000E+00 0. -1.
       23    2    1    2    0    0  0.65507547894E+02  0.23548436887E+02  0.65547629816E+03  0.66656916379E+03  0.99093415290E+02 0.  0.
       23    2    1    2    0    0 -0.27158514010E+02 -0.14118614450E+03  0.12565698852E+03  0.21277821089E+03  0.93881712723E+02 0.  0.
      -11    1    4    4    0    0 -0.14937727034E+02 -0.19158748249E+01  0.53242921618E+02  0.55331862139E+02  0.00000000000E+00 0.  1.
       11    1    4    4    0    0 -0.12220786976E+02 -0.13927026968E+03  0.72414066902E+02  0.15744634875E+03  0.00000000000E+00 0. -1.
      -13    1    3    3    0    0  0.55447064221E+02  0.60749451642E+02  0.42335977492E+03  0.43127528544E+03  0.00000000000E+00 0.  1.
       13    1    3    3    0    0  0.10060483673E+02 -0.37201014755E+02  0.23211652324E+03  0.23529387835E+03  0.00000000000E+00 0. -1.
        2    1    1    2  501    0 -0.18300748716E+02 -0.34869377908E+02  0.17884858082E+01  0.39420674788E+02  0.00000000000E+00 0. -1.
        1    1    1    2  502    0 -0.20048285169E+02  0.15250708552E+03  0.22471040614E+04  0.22523625391E+04  0.00000000000E+00 0. -1.
<mgrwt>
<rscale>  0 0.75155439E+02</rscale>
<asrwt>0</asrwt>
<pdfrwt beam="1">  1        2 0.47701203E+00 0.14343139E+03</pdfrwt>
<pdfrwt beam="2">  1        1 0.10854212E-01 0.39380083E+02</pdfrwt>
<totfact> 0.13909149E+02</totfact>
</mgrwt>
</event>
<event>
10   0  0.7688500E-08  0.9131272E+02  0.7546771E-02  0.1340385E+00
        1   -1    0    0  501    0  0.00000000000E+00  0.00000000000E+00  0.89084586362E+02  0.89084586362E+02  0.00000000000E+00 0. -1.
        2   -1    0    0  502    0  0.00000000000E+00  0.00000000000E+00 -0.43259614765E+04  0.43259614765E+04  0.00000000000E+00 0. -1.
       23    2    1    2    0    0 -0.76679023088E+02 -0.23245118396E+03 -0.36541453903E+03  0.45026932101E+03  0.96444028384E+02 0.  0.
       23    2    1    2    0    0  0.14952120053E+03  0.20749747770E+03 -0.47050522450E+03  0.54322325803E+03  0.91129298933E+02 0.  0.
      -11    1    4    4    0    0  0.37652867229E+02  0.20038347284E+02 -0.31791263788E+02  0.53197351679E+02  0.00000000000E+00 0.  1.
       11    1    4    4    0    0  0.11186833330E+03  0.18745913042E+03 -0.43871396071E+03  0.49002590635E+03  0.00000000000E+00 0. -1.
      -13    1    3    3    0    0 -0.76469233134E+02 -0.24013042264E+03 -0.33683682992E+03  0.42067708932E+03  0.00000000000E+00 0. -1.
       13    1    3    3    0    0 -0.20978995373E+00  0.76792386824E+01 -0.28577709109E+02  0.29592231691E+02  0.00000000000E+00 0.  1.
        2    1    1    2  501    0 -0.29947962900E+02 -0.55976381104E+02 -0.94595609267E+02  0.11392350511E+03  0.00000000000E+00 0. -1.
        1    1    1    2  502    0 -0.42894214539E+02  0.80930087359E+02 -0.33063615173E+04  0.33076299787E+04  0.00000000000E+00 0. -1.
<mgrwt>
<rscale>  0 0.76137437E+02</rscale>
<asrwt>0</asrwt>
<pdfrwt beam="1">  1        2 0.66553253E+00 0.91312722E+02</pdfrwt>
<pdfrwt beam="2">  1        1 0.13705321E-01 0.63484138E+02</pdfrwt>
<totfact> 0.16569591E+01</totfact>
</mgrwt>
</event>
<event>
10   0  0.7688500E-08  0.5709321E+02  0.7546771E-02  0.1411323E+00
        2   -1    0    0  502    0  0.00000000000E+00  0.00000000000E+00  0.21446301449E+03  0.21446301449E+03  0.00000000000E+00 0. -1.
        1   -1    0    0  501    0  0.00000000000E+00  0.00000000000E+00 -0.57503504636E+03  0.57503504636E+03  0.00000000000E+00 0. -1.
       23    2    1    2    0    0 -0.10807102480E+03 -0.88097479613E+02  0.61387987552E+02  0.17120448308E+03  0.78115156635E+02 0.  0.
       23    2    1    2    0    0  0.12965166462E+03  0.10763547651E+03 -0.99518215861E+02  0.21591524821E+03  0.91217153978E+02 0.  0.
      -11    1    4    4    0    0  0.86480577648E+01  0.54990154656E+02 -0.50455866281E+02  0.75129890552E+02  0.00000000000E+00 0.  1.
       11    1    4    4    0    0  0.12100360685E+03  0.52645321849E+02 -0.49062349580E+02  0.14078535766E+03  0.00000000000E+00 0. -1.
      -13    1    3    3    0    0  0.76370260330E+01 -0.75598456032E+00 -0.74707731128E+01  0.10710188149E+02  0.00000000000E+00 0.  1.
       13    1    3    3    0    0 -0.11570805084E+03 -0.87341495053E+02  0.68858760665E+02  0.16049429494E+03  0.00000000000E+00 0. -1.
        2    1    1    2  501    0 -0.40035874621E+02  0.40159402029E+02 -0.33404595629E+03  0.33882495442E+03  0.00000000000E+00 0. -1.
        1    1    1    2  502    0  0.18455234807E+02 -0.59697398920E+02  0.11604152724E+02  0.63553375127E+02  0.00000000000E+00 0. -1.
<mgrwt>
<rscale>  0 0.56899625E+02</rscale>
<asrwt>0</asrwt>
<pdfrwt beam="1">  1        2 0.32994310E-01 0.57093215E+02</pdfrwt>
<pdfrwt beam="2">  1        1 0.88466930E-01 0.56706691E+02</pdfrwt>
<totfact> 0.81740341E+02</totfact>
</mgrwt>
</event>
<event>
11   0  0.7688500E-08  0.2651035E+03  0.7546771E-02  0.1147202E+00
        1   -1    0    0  501    0  0.00000000000E+00  0.00000000000E+00  0.35843558353E+03  0.35843558353E+03  0.00000000000E+00 0. -1.
       -1   -1    0    0    0  501  0.00000000000E+00  0.00000000000E+00 -0.51174409726E+03  0.51174409726E+03  0.00000000000E+00 0.  1.
       23    2    1    2    0    0  0.63054652903E+01 -0.17243503192E+02  0.16589958882E+03  0.18932101612E+03  0.89345824084E+02 0.  0.
       23    2    1    2    0    0 -0.71054339743E+02  0.25120680763E+03 -0.10305110508E+02  0.27670840563E+03  0.91146953046E+02 0.  0.
       23    2    1    2    0    0  0.64748874453E+02 -0.23396330444E+03 -0.30890299204E+03  0.40415025903E+03  0.94789919390E+02 0.  0.
      -11    1    3    3    0    0 -0.17433199804E+02  0.11755576682E+01  0.15702115164E+03  0.15799031760E+03  0.00000000000E+00 0.  1.
       11    1    3    3    0    0  0.23738665094E+02 -0.18419060860E+02  0.88784371741E+01  0.31330698526E+02  0.00000000000E+00 0. -1.
      -13    1    4    4    0    0  0.70806556141E+01  0.12851054604E+03  0.13116067069E+02  0.12937205008E+03  0.00000000000E+00 0.  1.
       13    1    4    4    0    0 -0.78134995357E+02  0.12269626159E+03 -0.23421177577E+02  0.14733635555E+03  0.00000000000E+00 0. -1.
        2    1    5    5  502    0  0.38045213568E+02 -0.23165293353E+02 -0.30756571205E+02  0.54129804765E+02  0.00000000000E+00 0. -1.
       -2    1    5    5    0  502  0.26703660884E+02 -0.21079801108E+03 -0.27814642083E+03  0.35002045427E+03  0.00000000000E+00 0.  1.
<mgrwt>
<rscale>  0 0.20303714E+03</rscale>
<asrwt>0</asrwt>
<pdfrwt beam="1">  1        1 0.55143936E-01 0.26510346E+03</pdfrwt>
<pdfrwt beam="2">  1       -1 0.78729861E-01 0.26510346E+03</pdfrwt>
<totfact> 0.11907096E+02</totfact>
</mgrwt>
</event>
<event>
10   0  0.7688500E-08  0.1173231E+03  0.7546771E-02  0.1262054E+00
       -3   -1    0    0    0  501  0.00000000000E+00  0.00000000000E+00  0.31470152777E+03  0.31470152777E+03  0.00000000000E+00 0.  1.
        1   -1    0    0  502    0  0.00000000000E+00  0.00000000000E+00 -0.50264611623E+03  0.50264611623E+03  0.00000000000E+00 0. -1.
       23    2    1    2    0    0  0.42793484700E+01  0.34359557149E+02 -0.97245373912E+02  0.13852782338E+03  0.92381833234E+02 0.  0.
       23    2    1    2    0    0 -0.66615596379E+01 -0.13651701056E+03 -0.55053783495E+02  0.17426926841E+03  0.93046162133E+02 0.  0.
      -11    1    4    4    0    0 -0.39900939223E+02 -0.11070581261E+03 -0.59655616629E+02  0.13193428096E+03  0.00000000000E+00 0. -1.
       11    1    4    4    0    0  0.33239379585E+02 -0.25811197949E+02  0.46018331339E+01  0.42334987457E+02  0.00000000000E+00 0.  1.
      -13    1    3    3    0    0 -0.41935675969E+02  0.30684399324E+02 -0.57057330350E+02  0.77173001934E+02  0.00000000000E+00 0. -1.
       13    1    3    3    0    0  0.46215024439E+02  0.36751578243E+01 -0.40188043561E+02  0.61354821443E+02  0.00000000000E+00 0.  1.
        2    1    1    2  502    0 -0.99122710038E+02  0.10422681528E+03 -0.23803875295E+03  0.27812045696E+03  0.00000000000E+00 0. -1.
       -4    1    1    2    0  501  0.10150492121E+03 -0.20693618754E+01  0.20239332190E+03  0.22643009525E+03  0.00000000000E+00 0.  1.
<mgrwt>
<rscale>  0 0.10920224E+03</rscale>
<asrwt>0</asrwt>
<pdfrwt beam="1">  1        1 0.77330172E-01 0.11732312E+03</pdfrwt>
<pdfrwt beam="2">  1       -3 0.48415620E-01 0.10164347E+03</pdfrwt>
<totfact> 0.10259369E+02</totfact>
</mgrwt>
</event>
<event>
10   0  0.7688500E-08  0.4875249E+02  0.7546771E-02  0.1471876E+00
        3   -1    0    0  501    0  0.00000000000E+00  0.00000000000E+00  0.10908194971E+03  0.10908194971E+03  0.00000000000E+00 0. -1.
        2   -1    0    0  502    0  0.00000000000E+00  0.00000000000E+00 -0.27882552021E+04  0.27882552021E+04  0.00000000000E+00 0. -1.
       23    2    1    2    0    0  0.31722730185E+02 -0.81048787036E+02 -0.74705813261E+03  0.75804844344E+03  0.94690821156E+02 0.  0.
       23    2    1    2    0    0 -0.68893474069E+02  0.28378988861E+02 -0.12803600614E+04  0.12858482562E+04  0.92369764880E+02 0.  0.
      -11    1    4    4    0    0  0.16880986658E+02  0.27512141604E+02 -0.41158667388E+03  0.41285042783E+03  0.00000000000E+00 0.  1.
       11    1    4    4    0    0 -0.85774460726E+02  0.86684725650E+00 -0.86877338753E+03  0.87299782842E+03  0.00000000000E+00 0. -1.
      -13    1    3    3    0    0  0.20773056043E+02 -0.30159253331E+02 -0.70075896604E+02  0.79067893001E+02  0.00000000000E+00 0.  1.
       13    1    3    3    0    0  0.10949674143E+02 -0.50889533705E+02 -0.67698223601E+03  0.67898055044E+03  0.00000000000E+00 0. -1.
        4    1    1    2  501    0  0.42052915183E+02  0.43089923576E+01  0.95588034335E+02  0.10451835915E+03  0.00000000000E+00 0. -1.
        1    1    1    2  502    0 -0.48821712999E+01  0.48360805818E+02 -0.74734309266E+03  0.74892209293E+03  0.00000000000E+00 0. -1.
<mgrwt>
<rscale>  0 0.45397345E+02</rscale>
<asrwt>0</asrwt>
<pdfrwt beam="1">  1        2 0.42896234E+00 0.48752489E+02</pdfrwt>
<pdfrwt beam="2">  1        3 0.16781838E-01 0.42273101E+02</pdfrwt>
<totfact> 0.57614578E+01</totfact>
</mgrwt>
</event>
<event>
10   0  0.7688500E-08  0.8774640E+02  0.7546771E-02  0.1435387E+00
        3   -1    0    0  501    0  0.00000000000E+00  0.00000000000E+00  0.22122234959E+03  0.22122234959E+03  0.00000000000E+00 0. -1.
        2   -1    0    0  502    0  0.00000000000E+00  0.00000000000E+00 -0.10065687049E+04  0.10065687049E+04  0.00000000000E+00 0. -1.
       23    2    1    2    0    0  0.91673210092E+01  0.51721007706E+02 -0.41521055377E+03  0.42834815587E+03  0.91231772241E+02 0.  0.
       23    2    1    2    0    0 -0.52540454446E+02 -0.12288475892E+03 -0.11504707836E+03  0.19779902801E+03  0.89596104344E+02 0.  0.
      -11    1    3    3    0    0 -0.40376567340E+02  0.22656605466E+02 -0.14973095847E+03  0.15672571227E+03  0.00000000000E+00 0. -1.
       11    1    3    3    0    0  0.49543888349E+02  0.29064402239E+02 -0.26547959530E+03  0.27162244361E+03  0.00000000000E+00 0.  1.
      -13    1    4    4    0    0 -0.48159296851E+02 -0.12902149612E+03 -0.74538255796E+02  0.15659443129E+03  0.00000000000E+00 0. -1.
       13    1    4    4    0    0 -0.43811575946E+01  0.61367371957E+01 -0.40508822567E+02  0.41204596722E+02  0.00000000000E+00 0.  1.
        4    1    1    2  501    0  0.26309516673E+02 -0.15801846436E+02  0.16728280645E+03  0.17007476695E+03  0.00000000000E+00 0. -1.
        1    1    1    2  502    0  0.17063616764E+02  0.86965597651E+02 -0.42237152958E+03  0.43156910361E+03  0.00000000000E+00 0. -1.
<mgrwt>
<rscale>  0 0.51893693E+02</rscale>
<asrwt>0</asrwt>
<pdfrwt beam="1">  1        2 0.15485672E+00 0.87746396E+02</pdfrwt>
<pdfrwt beam="2">  1        3 0.34034208E-01 0.30690210E+02</pdfrwt>
<totfact> 0.12448663E+02</totfact>
</mgrwt>
</event>
<event>
10   0  0.7688500E-08  0.1599135E+03  0.7546771E-02  0.1201045E+00
        2   -1    0    0  502    0  0.00000000000E+00  0.00000000000E+00  0.54158802336E+03  0.54158802336E+03  0.00000000000E+00 0. -1.
        1   -1    0    0  501    0  0.00000000000E+00  0.00000000000E+00 -0.20826859897E+03  0.20826859897E+03  0.00000000000E+00 0. -1.
       23    2    1    2    0    0  0.11176794718E+03 -0.44655176830E+02  0.89470514798E+02  0.17540912839E+03  0.90979285939E+02 0.  0.
       23    2    1    2    0    0 -0.77611034518E+02  0.20610278794E+02 -0.14251946784E+01  0.12227797964E+03  0.92204212778E+02 0.  0.
      -11    1    4    4    0    0 -0.60236774816E+02  0.35874578345E+02 -0.37437000498E+02  0.79479452803E+02  0.00000000000E+00 0. -1.
       11    1    4    4    0    0 -0.17374259703E+02 -0.15264299552E+02  0.36011805820E+02  0.42798526837E+02  0.00000000000E+00 0.  1.
      -13    1    3    3    0    0  0.10210888237E+03 -0.68701084911E+02  0.62586050582E+02  0.13806910101E+03  0.00000000000E+00 0.  1.
       13    1    3    3    0    0  0.96590648087E+01  0.24045908081E+02  0.26884464216E+02  0.37340027378E+02  0.00000000000E+00 0. -1.
        2    1    1    2  501    0 -0.35372497354E+02  0.17805948343E+03  0.24799176608E+02  0.18322497747E+03  0.00000000000E+00 0. -1.
        1    1    1    2  502    0  0.12155846949E+01 -0.15401458540E+03  0.22047492766E+03  0.26894453683E+03  0.00000000000E+00 0. -1.
<mgrwt>
<rscale>  0 0.14953522E+03</rscale>
<asrwt>0</asrwt>
<pdfrwt beam="1">  1        2 0.83321234E-01 0.15991348E+03</pdfrwt>
<pdfrwt beam="2">  1        1 0.32041323E-01 0.13983050E+03</pdfrwt>
<totfact> 0.10774808E+03</totfact>
</mgrwt>
</event>
<event>
10   0  0.7688500E-08  0.2578480E+03  0.7546771E-02  0.1133476E+00
        1   -1    0    0  501    0  0.00000000000E+00  0.00000000000E+00  0.16574736915E+04  0.16574736915E+04  0.00000000000E+00 0. -1.
        2   -1    0    0  502    0  0.00000000000E+00  0.00000000000E+00 -0.67014308446E+03  0.67014308446E+03  0.00000000000E+00 0. -1.
       23    2    1    2    0    0  0.22120141510E+02  0.48203178290E+02 -0.37694519469E+03  0.39031382246E+03  0.86280664960E+02 0.  0.
       23    2    1    2    0    0 -0.67250605206E+02 -0.15458688204E+03  0.65703233200E+03  0.68435432523E+03  0.90717193380E+02 0.  0.
      -11    1    3    3    0    0  0.49475746490E+02  0.39391304114E+02 -0.16999524349E+03  0.18137780223E+03  0.00000000000E+00 0.  1.
       11    1    3    3    0    0 -0.27355604980E+02  0.88118741761E+01 -0.20694995120E+03  0.20893602023E+03  0.00000000000E+00 0. -1.
      -13    1    4    4    0    0 -0.82993889043E+02 -0.15098291929E+03  0.55734529629E+03  0.58336747152E+03  0.00000000000E+00 0. -1.
       13    1    4    4    0    0  0.15743283837E+02 -0.36039627437E+01  0.99687035712E+02  0.10098685371E+03  0.00000000000E+00 0.  1.
        2    1    1    2  501    0  0.12930190227E+02 -0.22046792933E+03  0.86202823181E+03  0.88986851282E+03  0.00000000000E+00 0. -1.
        1    1    1    2  502    0  0.32200273469E+02  0.32685163307E+03 -0.15478476209E+03  0.36308011544E+03  0.00000000000E+00 0. -1.
<mgrwt>
<rscale>  0 0.22054739E+03</rscale>
<asrwt>0</asrwt>
<pdfrwt beam="1">  1        2 0.10309894E+00 0.18864276E+03</pdfrwt>
<pdfrwt beam="2">  1        1 0.25499595E+00 0.25784797E+03</pdfrwt>
<totfact> 0.34807135E+01</totfact>
</mgrwt>
</event>
<event>
10   0  0.7688500E-08  0.6159921E+02  0.7546771E-02  0.1499256E+00
       -1   -1    0    0    0  501  0.00000000000E+00  0.00000000000E+00  0.15297617621E+03  0.15297617621E+03  0.00000000000E+00 0.  1.
        1   -1    0    0  502    0  0.00000000000E+00  0.00000000000E+00 -0.10675798853E+04  0.10675798853E+04  0.00000000000E+00 0. -1.
       23    2    1    2    0    0 -0.13650119293E+03 -0.90300067668E+02 -0.38890117171E+03  0.43200275530E+03  0.92712358050E+02 0.  0.
       23    2    1    2    0    0  0.69519153246E+02  0.67302009419E+02 -0.35169380027E+03  0.37746620986E+03  0.97106834454E+02 0.  0.
      -11    1    3    3    0    0 -0.12140065304E+03 -0.10760943140E+03 -0.31077264593E+03  0.35056746247E+03  0.00000000000E+00 0. -1.
       11    1    3    3    0    0 -0.15100539895E+02  0.17309363728E+02 -0.78128525773E+02  0.81435292823E+02  0.00000000000E+00 0.  1.
      -13    1    4    4    0    0  0.94371370606E+02  0.51702624803E+02 -0.28304239687E+03  0.30280705974E+03  0.00000000000E+00 0.  1.
       13    1    4    4    0    0 -0.24852217359E+02  0.15599384616E+02 -0.68651403404E+02  0.74659150125E+02  0.00000000000E+00 0. -1.
        2    1    1    2  502    0  0.55555702912E+01  0.27049703799E+02 -0.28384007514E+03  0.28518018706E+03  0.00000000000E+00 0. -1.
       -2    1    1    2    0  501  0.61426469395E+02 -0.40516455499E+01  0.10983133807E+03  0.12590690925E+03  0.00000000000E+00 0.  1.
<mgrwt>
<rscale>  0 0.41243431E+02</rscale>
<asrwt>0</asrwt>
<pdfrwt beam="1">  1        1 0.16424306E+00 0.27614323E+02</pdfrwt>
<pdfrwt beam="2">  1       -1 0.23534796E-01 0.61599214E+02</pdfrwt>
<totfact> 0.24977311E+02</totfact>
</mgrwt>
</event>
<event>
10   0  0.7688500E-08  0.3951086E+03  0.7546771E-02  0.1212810E+00
        2   -1    0    0  502    0  0.00000000000E+00  0.00000000000E+00  0.22994592275E+04  0.22994592275E+04  0.00000000000E+00 0. -1.
       -4   -1    0    0    0  501  0.00000000000E+00  0.00000000000E+00 -0.25999526562E+03  0.25999526562E+03  0.00000000000E+00 0.  1.
       23    2    1    2    0    0 -0.17739801294E+03  0.20442460336E+03  0.10921006092E+04  0.11278466841E+04  0.78070024323E+02 0.  0.
       23    2    1    2    0    0 -0.39319854261E+02  0.72402733025E+02  0.20391749647E+03  0.23913567382E+03  0.93889927243E+02 0.  0.
      -11    1    4    4    0    0  0.15494771932E+02  0.19886858116E+02  0.43043193461E+01  0.25575422733E+02  0.00000000000E+00 0. -1.
       11    1    4    4    0    0 -0.54814626194E+02  0.52515874909E+02  0.19961317713E+03  0.21356025109E+03  0.00000000000E+00 0.  1.
      -13    1    3    3    0    0 -0.10331954627E+03  0.17241042195E+03  0.78036606695E+03  0.80583588942E+03  0.00000000000E+00 0. -1.
       13    1    3    3    0    0 -0.74078466674E+02  0.32014181409E+02  0.31173454226E+03  0.32201079465E+03  0.00000000000E+00 0.  1.
        1    1    1    2  502    0 -0.36095860192E+02  0.34426660690E+02  0.78749114868E+03  0.78906933494E+03  0.00000000000E+00 0. -1.
       -3    1    1    2    0  501  0.25281372740E+03 -0.31125399708E+03 -0.44045292523E+02  0.40340280025E+03  0.00000000000E+00 0.  1.
<mgrwt>
<rscale>  0 0.14038654E+03</rscale>
<asrwt>0</asrwt>
<pdfrwt beam="1">  1        2 0.35376296E+00 0.49880919E+02</pdfrwt>
<pdfrwt beam="2">  1       -4 0.39999272E-01 0.39510864E+03</pdfrwt>
<totfact> 0.21162631E+01</totfact>
</mgrwt>
</event>
<event>
11   0  0.7688500E-08  0.1554006E+03  0.7546771E-02  0.1215205E+00
        2   -1    0    0  501    0  0.00000000000E+00  0.00000000000E+00  0.16678032998E+04  0.16678032998E+04  0.00000000000E+00 0. -1.
       -1   -1    0    0    0  501  0.00000000000E+00  0.00000000000E+00 -0.58160735749E+02  0.58160735749E+02  0.00000000000E+00 0.  1.
       24    2    1    2    0    0 -0.40506901484E+02  0.34014495596E+02  0.11123362727E+04  0.11164111561E+04  0.79272258513E+02 0.  0.
       23    2    1    2    0    0 -0.69912348072E+02 -0.92788205553E+02  0.39347092219E+03  0.42368182630E+03  0.10578060229E+03 0.  0.
       23    2    1    2    0    0  0.11041924956E+03  0.58773709957E+02  0.10383536911E+03  0.18587105308E+03  0.90108295076E+02 0.  0.
      -11    1    5    5    0    0  0.10330629737E+03  0.19174040962E+02  0.44327306528E+02  0.11403834893E+03  0.00000000000E+00 0.  1.
       11    1    5    5    0    0  0.71129521855E+01  0.39599668995E+02  0.59508062585E+02  0.71832704152E+02  0.00000000000E+00 0. -1.
      -13    1    4    4    0    0  0.23614033784E+02  0.91409387097E+00  0.43461714388E+02  0.49470989243E+02  0.00000000000E+00 0.  1.
       13    1    4    4    0    0 -0.93526381855E+02 -0.93702299424E+02  0.35000920780E+03  0.37421083705E+03  0.00000000000E+00 0. -1.
        2    1    3    3  502    0 -0.16181466840E+02  0.56256185411E+02  0.84982838806E+03  0.85184205544E+03  0.00000000000E+00 0. -1.
       -1    1    3    3    0  502 -0.24325434644E+02 -0.22241689815E+02  0.26250788465E+03  0.26456910069E+03  0.00000000000E+00 0.  1.
<mgrwt>
<rscale>  0 0.13861489E+03</rscale>
<asrwt>0</asrwt>
<pdfrwt beam="1">  1        2 0.25658512E+00 0.15540062E+03</pdfrwt>
<pdfrwt beam="2">  1       -1 0.89478055E-02 0.15540062E+03</pdfrwt>
<totfact> 0.93096818E+02</totfact>
</mgrwt>
</event>
<event>
10   0  0.7688500E-08  0.1489183E+03  0.7546771E-02  0.1272607E+00
        1   -1    0    0  501    0  0.00000000000E+00  0.00000000000E+00  0.10507430009E+04  0.10507430009E+04  0.00000000000E+00 0. -1.
        4   -1    0    0  502    0  0.00000000000E+00  0.00000000000E+00 -0.19229766521E+03  0.19229766521E+03  0.00000000000E+00 0. -1.
       23    2    1    2    0    0 -0.22339992148E+02  0.17024772273E+03  0.22056505406E+02  0.19518955781E+03  0.90161586623E+02 0.  0.
       23    2    1    2    0    0  0.20440672601E+02  0.17806760049E+02  0.83666895717E+02  0.12676215919E+03  0.91288519338E+02 0.  0.
      -11    1    3    3    0    0  0.26064767860E+02  0.56701069028E+02 -0.18790954443E+02  0.65172719150E+02  0.00000000000E+00 0.  1.
       11    1    3    3    0    0 -0.48404760008E+02  0.11354665370E+03  0.40847459849E+02  0.13001683866E+03  0.00000000000E+00 0. -1.
      -13    1    4    4    0    0 -0.25523850109E+02  0.78027112315E+01  0.74097896753E+02  0.78758158500E+02  0.00000000000E+00 0.  1.
       13    1    4    4    0    0  0.45964522711E+02  0.10004048817E+02  0.95689989631E+01  0.48004000686E+02  0.00000000000E+00 0. -1.
        2    1    1    2  501    0  0.48427309512E+02 -0.53655563074E+02  0.77392454843E+03  0.77729230693E+03  0.00000000000E+00 0. -1.
        3    1    1    2  502    0 -0.46527989966E+02 -0.13439891971E+03 -0.21202613859E+02  0.14379664218E+03  0.00000000000E+00 0. -1.
<mgrwt>
<rscale>  0 0.10374743E+03</rscale>
<asrwt>0</asrwt>
<pdfrwt beam="1">  1        4 0.29584256E-01 0.14891827E+03</pdfrwt>
<pdfrwt beam="2">  1        1 0.16165277E+00 0.72278100E+02</pdfrwt>
<totfact> 0.79170537E+01</totfact>
</mgrwt>
</event>
<event>
10   0  0.7688500E-08  0.1307312E+03  0.7546771E-02  0.1233006E+00
        2   -1    0    0  502    0  0.00000000000E+00  0.00000000000E+00  0.53843005180E+03  0.53843005180E+03  0.00000000000E+00 0. -1.
        1   -1    0    0  501    0  0.00000000000E+00  0.00000000000E+00 -0.18760905525E+03  0.18760905525E+03  0.00000000000E+00 0. -1.
       23    2    1    2    0    0 -0.22024056627E+02  0.36791380902E+02  0.14839079459E+03  0.17889384499E+03  0.90246967126E+02 0.  0.
       23    2    1    2    0    0 -0.55355494979E+02 -0.39275939031E+02 -0.95563490289E+01  0.11510069963E+03  0.92466302170E+02 0.  0.
      -11    1    4    4    0    0 -0.81019460618E+02 -0.22685400396E+02 -0.63984387395E+01  0.84378435683E+02  0.00000000000E+00 0. -1.
       11    1    4    4    0    0  0.25663965639E+02 -0.16590538635E+02 -0.31579102894E+01  0.30722263945E+02  0.00000000000E+00 0.  1.
      -13    1    3    3    0    0 -0.15824051425E+02  0.55910062889E+02  0.14777173393E+03  0.15878545615E+03  0.00000000000E+00 0. -1.
       13    1    3    3    0    0 -0.62000052020E+01 -0.19118681987E+02  0.61906065820E+00  0.20108388834E+02  0.00000000000E+00 0.  1.
        2    1    1    2  501    0  0.51402228550E+02 -0.12956961192E+03 -0.41162127436E+02  0.14534371045E+03  0.00000000000E+00 0. -1.
        1    1    1    2  502    0  0.25977323056E+02  0.13205417005E+03  0.25314867842E+03  0.28670085198E+03  0.00000000000E+00 0. -1.
<mgrwt>
<rscale>  0 0.12632983E+03</rscale>
<asrwt>0</asrwt>
<pdfrwt beam="1">  1        2 0.82835393E-01 0.12207667E+03</pdfrwt>
<pdfrwt beam="2">  1        1 0.28862932E-01 0.13073116E+03</pdfrwt>
<totfact> 0.12397554E+03</totfact>
</mgrwt>
</event>
<event>
10   0  0.7688500E-08  0.1377232E+03  0.7546771E-02  0.1272862E+00
       -2   -1    0    0    0  501  0.00000000000E+00  0.00000000000E+00  0.12951864273E+03  0.12951864273E+03  0.00000000000E+00 0.  1.
        2   -1    0    0  502    0  0.00000000000E+00  0.00000000000E+00 -0.14685507707E+04  0.14685507707E+04  0.00000000000E+00 0. -1.
       23    2    1    2    0    0 -0.16919486905E+03  0.64343974563E+02 -0.13796384374E+03  0.24602395275E+03  0.93416874118E+02 0.  0.
       23    2    1    2    0    0  0.22802060830E+03  0.68801324334E+02 -0.96928980495E+03  0.10025796568E+04  0.94425750012E+02 0.  0.
      -11    1    4    4    0    0  0.87600096822E+02 -0.42860319777E+01 -0.49104811819E+03  0.49881900666E+03  0.00000000000E+00 0.  1.
       11    1    4    4    0    0  0.14042051148E+03  0.73087356311E+02 -0.47824168676E+03  0.50376065016E+03  0.00000000000E+00 0. -1.
      -13    1    3    3    0    0 -0.24405082392E+02  0.35848830497E+02 -0.72736394963E+02  0.84683704729E+02  0.00000000000E+00 0.  1.
       13    1    3    3    0    0 -0.14478978666E+03  0.28495144066E+02 -0.65227448778E+02  0.16134024802E+03  0.00000000000E+00 0. -1.
        1    1    1    2  502    0 -0.77846142747E+02  0.42525425388E+01 -0.18878157987E+03  0.20424639766E+03  0.00000000000E+00 0. -1.
       -1    1    1    2    0  501  0.19020403500E+02 -0.13739784143E+03 -0.42996899423E+02  0.14521940621E+03  0.00000000000E+00 0.  1.
<mgrwt>
<rscale>  0 0.10362047E+03</rscale>
<asrwt>0</asrwt>
<pdfrwt beam="1">  1        2 0.22593089E+00 0.77962209E+02</pdfrwt>
<pdfrwt beam="2">  1       -2 0.19925945E-01 0.13772317E+03</pdfrwt>
<totfact> 0.32572094E+02</totfact>
</mgrwt>
</event>
<event>
10   0  0.7688500E-08  0.7278832E+02  0.7546771E-02  0.1446575E+00
        2   -1    0    0  502    0  0.00000000000E+00  0.00000000000E+00  0.19482141991E+04  0.19482141991E+04  0.00000000000E+00 0. -1.
        3   -1    0    0  501    0  0.00000000000E+00  0.00000000000E+00 -0.59967959739E+03  0.59967959739E+03  0.00000000000E+00 0. -1.
       23    2    1    2    0    0 -0.67056726397E+02 -0.21838833225E+02  0.67624031409E+03  0.68587893780E+03  0.90307340370E+02 0.  0.
       23    2    1    2    0    0  0.11089138875E+03  0.42757777233E+02  0.18566032937E+03  0.24641795583E+03  0.11012231127E+03 0.  0.
      -11    1    4    4    0    0  0.65242739097E+02 -0.15024600484E+02  0.28311465479E+02  0.72690389339E+02  0.00000000000E+00 0. -1.
       11    1    4    4    0    0  0.45648649655E+02  0.57782377717E+02  0.15734886389E+03  0.17372756649E+03  0.00000000000E+00 0.  1.
      -13    1    3    3    0    0 -0.56014847103E+01  0.93790232939E+01  0.43092648422E+03  0.43106493422E+03  0.00000000000E+00 0. -1.
       13    1    3    3    0    0 -0.61455241687E+02 -0.31217856519E+02  0.24531382987E+03  0.25481400358E+03  0.00000000000E+00 0.  1.
        4    1    1    2  501    0 -0.48159387232E+02 -0.54676766736E+02 -0.56185299443E+03  0.56655773117E+03  0.00000000000E+00 0. -1.
        1    1    1    2  502    0  0.43247248764E+01  0.33757822728E+02  0.10484869527E+04  0.10490391717E+04  0.00000000000E+00 0. -1.
<mgrwt>
<rscale>  0 0.49772050E+02</rscale>
<asrwt>0</asrwt>
<pdfrwt beam="1">  1        2 0.29972526E+00 0.34033716E+02</pdfrwt>
<pdfrwt beam="2">  1        3 0.92258400E-01 0.72788318E+02</pdfrwt>
<totfact> 0.65475266E+00</totfact>
</mgrwt>
</event>
<event>
10   0  0.7688500E-08  0.2188998E+03  0.7546771E-02  0.1324816E+00
        1   -1    0    0  501    0  0.00000000000E+00  0.00000000000E+00  0.88827148538E+03  0.88827148538E+03  0.00000000000E+00 0. -1.
        2   -1    0    0  502    0  0.00000000000E+00  0.00000000000E+00 -0.78861059357E+03  0.78861059357E+03  0.00000000000E+00 0. -1.
       23    2    1    2    0    0  0.24120890363E+03 -0.23937742851E+03  0.62647220378E+03  0.71828587213E+03  0.89352579851E+02 0.  0.
       23    2    1    2    0    0 -0.10549451718E+03  0.67152203345E+02 -0.34242103823E+02  0.15740251881E+03  0.89244157712E+02 0.  0.
      -11    1    4    4    0    0 -0.52221325401E+02  0.78942580496E+02 -0.39549965206E+02  0.10258263786E+03  0.00000000000E+00 0.  1.
       11    1    4    4    0    0 -0.53273191777E+02 -0.11790377151E+02  0.53078613833E+01  0.54819880955E+02  0.00000000000E+00 0. -1.
      -13    1    3    3    0    0  0.38813160620E+02 -0.17706182993E+01  0.80705276371E+02  0.89570855532E+02  0.00000000000E+00 0.  1.
       13    1    3    3    0    0  0.20239574301E+03 -0.23760681021E+03  0.54576692741E+03  0.62871501660E+03  0.00000000000E+00 0. -1.
        2    1    1    2  501    0 -0.81126762484E+01  0.29248001743E+02  0.13843896884E+03  0.14172723526E+03  0.00000000000E+00 0. -1.
        1    1    1    2  502    0 -0.12760171021E+03  0.14297722342E+03 -0.63100817699E+03  0.65946645274E+03  0.00000000000E+00 0. -1.
<mgrwt>
<rscale>  0 0.81511410E+02</rscale>
<asrwt>0</asrwt>
<pdfrwt beam="1">  1        2 0.12132471E+00 0.21889984E+03</pdfrwt>
<pdfrwt beam="2">  1        1 0.13665715E+00 0.30352284E+02</pdfrwt>
<totfact> 0.11051799E+02</totfact>
</mgrwt>
</event>
<event>
11   0  0.7688500E-08  0.2844757E+03  0.7546771E-02  0.1127088E+00
       -1   -1    0    0    0  501  0.00000000000E+00  0.00000000000E+00  0.15455046457E+04  0.15455046457E+04  0.00000000000E+00 0.  1.
        2   -1    0    0  501    0  0.00000000000E+00  0.00000000000E+00 -0.51550451625E+03  0.51550451625E+03  0.00000000000E+00 0. -1.
       23    2    1    2    0    0 -0.78685121648E+02 -0.38645555616E+01  0.85993642597E+03  0.86829881121E+03  0.90806859155E+02 0.  0.
       24    2    1    2    0    0  0.29306550199E+03 -0.15355339846E+03  0.59370537368E+03  0.68442417388E+03  0.80525427173E+02 0.  0.
       23    2    1    2    0    0 -0.21438038034E+03  0.15741795402E+03 -0.42364167020E+03  0.50828617686E+03  0.90239753599E+02 0.  0.
      -11    1    5    5    0    0  0.32827565283E+01  0.11330500096E+02 -0.53084127772E+02  0.54379052438E+02  0.00000000000E+00 0.  1.
       11    1    5    5    0    0 -0.21766313687E+03  0.14608745392E+03 -0.37055754243E+03  0.45390712442E+03  0.00000000000E+00 0. -1.
      -13    1    3    3    0    0 -0.19074800636E+02 -0.36775788579E+02  0.16852199655E+03  0.17353953431E+03  0.00000000000E+00 0.  1.
       13    1    3    3    0    0 -0.59610321012E+02  0.32911233017E+02  0.69141442942E+03  0.69475927690E+03  0.00000000000E+00 0. -1.
        4    1    4    4  502    0  0.11530021258E+03 -0.27625063470E+02  0.16068438228E+03  0.19969164695E+03  0.00000000000E+00 0. -1.
       -3    1    4    4    0  502  0.17776528941E+03 -0.12592833499E+03  0.43302099141E+03  0.48473252694E+03  0.00000000000E+00 0.  1.
<mgrwt>
<rscale>  0 0.22936413E+03</rscale>
<asrwt>0</asrwt>
<pdfrwt beam="1">  1        2 0.79308387E-01 0.28447569E+03</pdfrwt>
<pdfrwt beam="2">  1       -1 0.23776995E+00 0.28447569E+03</pdfrwt>
<totfact> 0.65480891E+00</totfact>
</mgrwt>
</event>
<event>
10   0  0.7688500E-08  0.5123235E+02  0.7546771E-02  0.1444958E+00
        1   -1    0    0  501    0  0.00000000000E+00  0.00000000000E+00  0.14939329361E+04  0.14939329361E+04  0.00000000000E+00 0. -1.
        4   -1    0    0  502    0  0.00000000000E+00  0.00000000000E+00 -0.30682762530E+03  0.30682762530E+03  0.00000000000E+00 0. -1.
       23    2    1    2    0    0 -0.61759586720E+02 -0.72358874701E+02  0.24211914225E+03  0.27564145144E+03  0.91139878232E+02 0.  0.
       23    2    1    2    0    0  0.47078097492E+02  0.12517940920E+03 -0.22868169602E+03  0.28027595559E+03  0.91504433970E+02 0.  0.
      -11    1    4    4    0    0  0.10203511320E+01  0.69264959155E+02 -0.44433440340E+02  0.82298276432E+02  0.00000000000E+00 0.  1.
       11    1    4    4    0    0  0.46057746360E+02  0.55914450044E+02 -0.18424825568E+03  0.19797767916E+03  0.00000000000E+00 0. -1.
      -13    1    3    3    0    0 -0.10829637205E+02  0.19578202819E+02  0.20420921856E+02  0.30291931551E+02  0.00000000000E+00 0.  1.
       13    1    3    3    0    0 -0.50929949515E+02 -0.91937077520E+02  0.22169822040E+03  0.24534951989E+03  0.00000000000E+00 0. -1.
        2    1    1    2  501    0  0.48284821579E+02 -0.17245676936E+02  0.11916166058E+04  0.11927191508E+04  0.00000000000E+00 0. -1.
        3    1    1    2  502    0 -0.33603332352E+02 -0.35574857563E+02 -0.17948741265E+02  0.52124003575E+02  0.00000000000E+00 0. -1.
<mgrwt>
<rscale>  0 0.50071131E+02</rscale>
<asrwt>0</asrwt>
<pdfrwt beam="1">  1        4 0.47204250E-01 0.48936228E+02</pdfrwt>
<pdfrwt beam="2">  1        1 0.22983584E+00 0.51232354E+02</pdfrwt>
<totfact> 0.15251259E+01</totfact>
</mgrwt>
</event>
<event>
10   0  0.7688500E-08  0.3490639E+03  0.7546771E-02  0.1099537E+00
        1   -1    0    0  502    0  0.00000000000E+00  0.00000000000E+00  0.13706707596E+04  0.13706707596E+04  0.00000000000E+00 0. -1.
       -1   -1    0    0    0  501  0.00000000000E+00  0.00000000000E+00 -0.23204818439E+03  0.23204818439E+03  0.00000000000E+00 0.  1.
       23    2    1    2    0    0 -0.21920224583E+03  0.24391428684E+03  0.83615460369E+03  0.90275612780E+03  0.90941195905E+02 0.  0.
       23    2    1    2    0    0 -0.69813941777E+02 -0.59049228415E+02  0.32315230646E+03  0.34831721364E+03  0.92394103181E+02 0.  0.
      -11    1    4    4    0    0 -0.13842111953E+02 -0.43460665707E+02  0.44684364710E+02  0.63852376436E+02  0.00000000000E+00 0.  1.
       11    1    4    4    0    0 -0.55971829824E+02 -0.15588562708E+02  0.27846794175E+03  0.28446483720E+03  0.00000000000E+00 0. -1.
      -13    1    3    3    0    0 -0.22620109772E+03  0.22222855135E+03  0.79054227757E+03  0.85176848866E+03  0.00000000000E+00 0. -1.
       13    1    3    3    0    0  0.69988518927E+01  0.21685735484E+02  0.45612326121E+02  0.50987639144E+02  0.00000000000E+00 0.  1.
        2    1    1    2  502    0  0.21074195104E+03 -0.16691709360E+03 -0.31252007578E+02  0.27064769358E+03  0.00000000000E+00 0. -1.
       -2    1    1    2    0  501  0.78274236567E+02 -0.17947964825E+02  0.10567672628E+02  0.80997908962E+02  0.00000000000E+00 0.  1.
<mgrwt>
<rscale>  0 0.27306674E+03</rscale>
<asrwt>0</asrwt>
<pdfrwt beam="1">  1        1 0.21087242E+00 0.34906394E+03</pdfrwt>
<pdfrwt beam="2">  1       -1 0.35699721E-01 0.34906394E+03</pdfrwt>
<totfact> 0.65573049E+01</totfact>
</mgrwt>
</event>
<event>
10   0  0.7688500E-08  0.1384370E+03  0.7546771E-02  0.1264612E+00
       -1   -1    0    0    0  502  0.00000000000E+00  0.00000000000E+00  0.11547133786E+04  0.11547133786E+04  0.00000000000E+00 0.  1.
       -2   -1    0    0    0  501  0.00000000000E+00  0.00000000000E+00 -0.24594695192E+03  0.24594695192E+03  0.00000000000E+00 0.  1.
       23    2    1    2    0    0  0.49658176928E+02  0.12563944609E+02 -0.34914804241E+02  0.11056662715E+03  0.91554072792E+02 0.  0.
       23    2    1    2    0    0  0.14206980737E+02 -0.44704984010E+02  0.15919767736E+03  0.18927994098E+03  0.91008909907E+02 0.  0.
      -11    1    3    3    0    0 -0.21860335501E+02  0.16487687690E+02  0.60670324627E+01  0.28045088634E+02  0.00000000000E+00 0. -1.
       11    1    3    3    0    0  0.71518512430E+02 -0.39237430808E+01 -0.40981836703E+02  0.82521538519E+02  0.00000000000E+00 0.  1.
      -13    1    4    4    0    0  0.50857842426E+02 -0.36624810453E+02  0.79886652445E+02  0.10153705784E+03  0.00000000000E+00 0. -1.
       13    1    4    4    0    0 -0.36650861689E+02 -0.80801735570E+01  0.79311024913E+02  0.87742883131E+02  0.00000000000E+00 0.  1.
       -2    1    1    2    0  502 -0.14506152086E+03  0.10563649004E+02  0.92539621549E+03  0.93675642040E+03  0.00000000000E+00 0.  1.
       -1    1    1    2    0  501  0.81196363198E+02  0.21577390397E+02 -0.14091266192E+03  0.16405734199E+03  0.00000000000E+00 0.  1.
<mgrwt>
<rscale>  0 0.10784578E+03</rscale>
<asrwt>0</asrwt>
<pdfrwt beam="1">  1       -2 0.37837993E-01 0.84014482E+02</pdfrwt>
<pdfrwt beam="2">  1       -1 0.17764821E+00 0.13843700E+03</pdfrwt>
<totfact> 0.12264786E+01</totfact>
</mgrwt>
</event>
<event>
10   0  0.7688500E-08  0.7587806E+02  0.7546771E-02  0.1377250E+00
        1   -1    0    0  501    0  0.00000000000E+00  0.00000000000E+00  0.84893894034E+03  0.84893894034E+03  0.00000000000E+00 0. -1.
        2   -1    0    0  502    0  0.00000000000E+00  0.00000000000E+00 -0.65450087265E+03  0.65450087265E+03  0.00000000000E+00 0. -1.
       23    2    1    2    0    0 -0.17917777794E+03  0.13406107620E+03 -0.22387445365E+03  0.32946262857E+03  0.91371791966E+02 0.  0.
       23    2    1    2    0    0  0.16556053815E+03 -0.20971038127E+03  0.93157566482E+02  0.29494733462E+03  0.83227773010E+02 0.  0.
      -11    1    4    4    0    0  0.11129309677E+03 -0.16051415725E+03  0.28783749174E+02  0.19743214603E+03  0.00000000000E+00 0.  1.
       11    1    4    4    0    0  0.54267441379E+02 -0.49196224016E+02  0.64373817308E+02  0.97515188591E+02  0.00000000000E+00 0. -1.
      -13    1    3    3    0    0 -0.18208951393E+03  0.13994975760E+03 -0.19946770873E+03  0.30418726561E+03  0.00000000000E+00 0. -1.
       13    1    3    3    0    0  0.29117359888E+01 -0.58886813958E+01 -0.24406744920E+02  0.25275362958E+02  0.00000000000E+00 0.  1.
        2    1    1    2  501    0  0.60847880578E+02  0.45540649515E+02  0.59682552462E+03  0.60164534583E+03  0.00000000000E+00 0. -1.
        1    1    1    2  502    0 -0.47230640794E+02  0.30108655550E+02 -0.27167056975E+03  0.27738450396E+03  0.00000000000E+00 0. -1.
<mgrwt>
<rscale>  0 0.65192239E+02</rscale>
<asrwt>0</asrwt>
<pdfrwt beam="1">  1        2 0.10069244E+00 0.56011290E+02</pdfrwt>
<pdfrwt beam="2">  1        1 0.13060599E+00 0.75878061E+02</pdfrwt>
<totfact> 0.14607455E+02</totfact>
</mgrwt>
</event>
<event>
10   0  0.7688500E-08  0.6700052E+02  0.7546771E-02  0.1402473E+00
       -1   -1    0    0    0  501  0.00000000000E+00  0.00000000000E+00  0.24057646451E+03  0.24057646451E+03  0.00000000000E+00 0.  1.
        1   -1    0    0  502    0  0.00000000000E+00  0.00000000000E+00 -0.21843668835E+03  0.21843668835E+03  0.00000000000E+00 0. -1.
       23    2    1    2    0    0 -0.54630537326E+02 -0.23967416673E+02  0.19146522505E+02  0.11109033864E+03  0.91736259701E+02 0.  0.
       23    2    1    2    0    0  0.49891848802E+02 -0.38741846479E+02  0.10938354610E+03  0.15546470381E+03  0.90633253989E+02 0.  0.
      -11    1    4    4    0    0 -0.98057075068E+01 -0.42256850656E+02  0.74565966812E+02  0.86266312856E+02  0.00000000000E+00 0.  1.
       11    1    4    4    0    0  0.59697556309E+02  0.35150041772E+01  0.34817579290E+02  0.69198390958E+02  0.00000000000E+00 0. -1.
      -13    1    3    3    0    0 -0.53459244909E+02 -0.55392435631E+02  0.67105850611E+01  0.77273829614E+02  0.00000000000E+00 0.  1.
       13    1    3    3    0    0 -0.11712924172E+01  0.31425018958E+02  0.12435937444E+02  0.33816509023E+02  0.00000000000E+00 0. -1.
        2    1    1    2  502    0 -0.45594397513E+02  0.50499552834E+02 -0.12084895491E+03  0.13868498053E+03  0.00000000000E+00 0. -1.
       -2    1    1    2    0  501  0.50333086038E+02  0.12209710318E+02  0.14458662462E+02  0.53773129873E+02  0.00000000000E+00 0.  1.
<mgrwt>
<rscale>  0 0.58907946E+02</rscale>
<asrwt>0</asrwt>
<pdfrwt beam="1">  1        1 0.33605644E-01 0.67000519E+02</pdfrwt>
<pdfrwt beam="2">  1       -1 0.37011764E-01 0.51792824E+02</pdfrwt>
<totfact> 0.90528264E+02</totfact>
</mgrwt>
</event>
<event>
10   0  0.7688500E-08  0.3700862E+03  0.7546771E-02  0.1126364E+00
        3   -1    0    0  502    0  0.00000000000E+00  0.00000000000E+00  0.51830776956E+03  0.51830776956E+03  0.00000000000E+00 0. -1.
        2   -1    0    0  501    0  0.00000000000E+00  0.00000000000E+00 -0.87719360150E+03  0.87719360150E+03  0.00000000000E+00 0. -1.
       23    2    1    2    0    0 -0.10605773748E+03  0.22758268937E+03 -0.38255423218E+03  0.46660857331E+03  0.91289078997E+02 0.  0.
       23    2    1    2    0    0 -0.27046448257E+02  0.12782430968E+03 -0.97246571832E+02  0.18626028641E+03  0.90362791297E+02 0.  0.
      -11    1    3    3    0    0 -0.10913219964E+03  0.22661532444E+03 -0.33484471651E+03  0.41879031322E+03  0.00000000000E+00 0. -1.
       11    1    3    3    0    0  0.30744621619E+01  0.96736493014E+00 -0.47709515672E+02  0.47818260092E+02  0.00000000000E+00 0.  1.
      -13    1    4    4    0    0 -0.56673369132E+02  0.11125809637E+03 -0.74458340590E+02  0.14537633666E+03  0.00000000000E+00 0. -1.
       13    1    4    4    0    0  0.29626920875E+02  0.16566213311E+02 -0.22788231241E+02  0.40883949749E+02  0.00000000000E+00 0.  1.
        2    1    1    2  501    0 -0.10072142820E+02 -0.34692386755E+03  0.33668365919E+03  0.48354266028E+03  0.00000000000E+00 0. -1.
        3    1    1    2  502    0  0.14317632855E+03 -0.84831315075E+01 -0.21576868712E+03  0.25908985106E+03  0.00000000000E+00 0. -1.
<mgrwt>
<rscale>  0 0.23039206E+03</rscale>
<asrwt>0</asrwt>
<pdfrwt beam="1">  1        2 0.13495286E+00 0.37008616E+03</pdfrwt>
<pdfrwt beam="2">  1        3 0.79739657E-01 0.14342742E+03</pdfrwt>
<totfact> 0.28675520E+01</totfact>
</mgrwt>
</event>
<event>
10   0  0.7688500E-08  0.6014874E+02  0.7546771E-02  0.1410592E+00
       -1   -1    0    0    0  502  0.00000000000E+00  0.00000000000E+00  0.78391177475E+02  0.78391177475E+02  0.00000000000E+00 0.  1.
       -2   -1    0    0    0  501  0.00000000000E+00  0.00000000000E+00 -0.10963477234E+04  0.10963477234E+04  0.00000000000E+00 0.  1.
       23    2    1    2    0    0  0.11388956299E+03  0.72930748817E+02 -0.21314664722E+03  0.26830342320E+03  0.90914833756E+02 0.  0.
       23    2    1    2    0    0 -0.10573278515E+03  0.15370486645E+02 -0.58177542288E+03  0.59858546650E+03  0.91794576788E+02 0.  0.
      -11    1    3    3    0    0  0.12804949025E+03  0.75076093407E+02 -0.19039343201E+03  0.24141820708E+03  0.00000000000E+00 0.  1.
       11    1    3    3    0    0 -0.14159927262E+02 -0.21453445902E+01 -0.22753215209E+02  0.26885216120E+02  0.00000000000E+00 0. -1.
      -13    1    4    4    0    0 -0.34085840362E+02  0.50006579863E+02 -0.22091659182E+03  0.22905598243E+03  0.00000000000E+00 0.  1.
       13    1    4    4    0    0 -0.71646944789E+02 -0.34636093217E+02 -0.36085883105E+03  0.36952948408E+03  0.00000000000E+00 0. -1.
       -2    1    1    2    0  502  0.31011395585E+02 -0.44370285485E+02  0.20061025444E+02  0.57731045652E+02  0.00000000000E+00 0.  1.
       -1    1    1    2    0  501 -0.39168173426E+02 -0.43930949977E+02 -0.24309550123E+03  0.25011896548E+03  0.00000000000E+00 0.  1.
<mgrwt>
<rscale>  0 0.57061880E+02</rscale>
<asrwt>0</asrwt>
<pdfrwt beam="1">  1       -2 0.16866888E+00 0.60148743E+02</pdfrwt>
<pdfrwt beam="2">  1       -1 0.12060181E-01 0.54133436E+02</pdfrwt>
<totfact> 0.77827026E+01</totfact>
</mgrwt>
</event>
<event>
10   0  0.7688500E-08  0.1247254E+03  0.7546771E-02  0.1253549E+00
        1   -1    0    0  502    0  0.00000000000E+00  0.00000000000E+00  0.74672205694E+03  0.74672205694E+03  0.00000000000E+00 0. -1.
       -1   -1    0    0    0  501  0.00000000000E+00  0.00000000000E+00 -0.12458420537E+04  0.12458420537E+04  0.00000000000E+00 0.  1.
       23    2    1    2    0    0 -0.31418857050E+02 -0.60126051403E+02  0.25870795708E+03  0.28246501115E+03  0.90853667150E+02 0.  0.
       23    2    1    2    0    0 -0.93393932644E+01  0.39738853347E+02 -0.16855120148E+03  0.19569806333E+03  0.90674272745E+02 0.  0.
      -11    1    4    4    0    0 -0.24788757541E+02  0.63143615444E+02 -0.93010270373E+02  0.11511954250E+03  0.00000000000E+00 0. -1.
       11    1    4    4    0    0  0.15449364277E+02 -0.23404762096E+02 -0.75540931112E+02  0.80578520826E+02  0.00000000000E+00 0.  1.
      -13    1    3    3    0    0 -0.20757668043E+02 -0.38659988502E+02  0.25434622394E+03  0.25810361703E+03  0.00000000000E+00 0. -1.
       13    1    3    3    0    0 -0.10661189007E+02 -0.21466062901E+02  0.43617331397E+01  0.24361394121E+02  0.00000000000E+00 0.  1.
        2    1    1    2  502    0  0.15499295970E+02 -0.10304485486E+03  0.45285081330E+03  0.46468519386E+03  0.00000000000E+00 0. -1.
       -2    1    1    2    0  501  0.25258954345E+02  0.12343205291E+03 -0.10421275656E+04  0.10497158423E+04  0.00000000000E+00 0.  1.
<mgrwt>
<rscale>  0 0.11388000E+03</rscale>
<asrwt>0</asrwt>
<pdfrwt beam="1">  1        1 0.11488032E+00 0.10397766E+03</pdfrwt>
<pdfrwt beam="2">  1       -1 0.19166801E+00 0.12472539E+03</pdfrwt>
<totfact> 0.55017067E+00</totfact>
</mgrwt>
</event>
<event>
10   0  0.7688500E-08  0.1373957E+03  0.7546771E-02  0.1232543E+00
        3   -1    0    0  501    0  0.00000000000E+00  0.00000000000E+00  0.29382107058E+03  0.29382107058E+03  0.00000000000E+00 0. -1.
        2   -1    0    0  502    0  0.00000000000E+00  0.00000000000E+00 -0.12557701076E+04  0.12557701076E+04  0.00000000000E+00 0. -1.
       23    2    1    2    0    0 -0.11824744005E+03 -0.53621825130E+02 -0.37843029619E+03  0.41045993290E+03  0.91706653162E+02 0.  0.
       23    2    1    2    0    0  0.11042244931E+03  0.77844116312E+02  0.94019554313E+02  0.18883113442E+03  0.92545648071E+02 0.  0.
      -11    1    4    4    0    0  0.67504863474E+02  0.77493328606E+02  0.10242527785E+03  0.14509672675E+03  0.00000000000E+00 0. -1.
       11    1    4    4    0    0  0.42917585838E+02  0.35078770599E+00 -0.84057235357E+01  0.43734407671E+02  0.00000000000E+00 0.  1.
      -13    1    3    3    0    0 -0.19020400072E+02 -0.45323524811E+02 -0.64358176408E+02  0.80981308898E+02  0.00000000000E+00 0.  1.
       13    1    3    3    0    0 -0.99227039977E+02 -0.82983003186E+01 -0.31407211978E+03  0.32947862400E+03  0.00000000000E+00 0. -1.
        4    1    1    2  501    0 -0.51337428941E+02  0.10481062015E+03  0.10378932491E+03  0.15618265484E+03  0.00000000000E+00 0. -1.
        1    1    1    2  502    0  0.59162419678E+02 -0.12903291134E+03 -0.78132762006E+03  0.79411745604E+03  0.00000000000E+00 0. -1.
<mgrwt>
<rscale>  0 0.12663017E+03</rscale>
<asrwt>0</asrwt>
<pdfrwt beam="1">  1        2 0.19319540E+00 0.13739569E+03</pdfrwt>
<pdfrwt beam="2">  1        3 0.45203242E-01 0.11670817E+03</pdfrwt>
<totfact> 0.57288724E+01</totfact>
</mgrwt>
</event>
<event>
10   0  0.7688500E-08  0.4562545E+03  0.7546771E-02  0.1084975E+00
       -2   -1    0    0    0  501  0.00000000000E+00  0.00000000000E+00  0.12262132328E+04  0.12262132328E+04  0.00000000000E+00 0.  1.
        2   -1    0    0  502    0  0.00000000000E+00  0.00000000000E+00 -0.17551789117E+04  0.17551789117E+04  0.00000000000E+00 0. -1.
       23    2    1    2    0    0 -0.14744752470E+02 -0.33873437049E+01 -0.27783469190E+03  0.29080743931E+03  0.84545661698E+02 0.  0.
       23    2    1    2    0    0 -0.39674612698E+02 -0.29224857385E+02 -0.38813732777E+02  0.10974233029E+03  0.90048353808E+02 0.  0.
      -11    1    4    4    0    0  0.16871284376E+02 -0.30090999240E+02  0.90371427666E+01  0.35662002484E+02  0.00000000000E+00 0.  1.
       11    1    4    4    0    0 -0.56545897074E+02  0.86614185525E+00 -0.47850875543E+02  0.74080327806E+02  0.00000000000E+00 0. -1.
      -13    1    3    3    0    0 -0.19949658282E+01 -0.43135369110E+02 -0.11949381212E+03  0.12705672391E+03  0.00000000000E+00 0.  1.
       13    1    3    3    0    0 -0.12749786642E+02  0.39748025405E+02 -0.15834087978E+03  0.16375071539E+03  0.00000000000E+00 0. -1.
        1    1    1    2  502    0  0.34220791006E+03  0.38414613104E+03 -0.13021563918E+04  0.14001020579E+04  0.00000000000E+00 0. -1.
       -1    1    1    2    0  501 -0.28778854489E+03 -0.35153392995E+03  0.10898391376E+04  0.11807403170E+04  0.00000000000E+00 0.  1.
<mgrwt>
<rscale>  0 0.30053098E+03</rscale>
<asrwt>0</asrwt>
<pdfrwt beam="1">  1        2 0.27002752E+00 0.19795721E+03</pdfrwt>
<pdfrwt beam="2">  1       -2 0.18864819E+00 0.45625451E+03</pdfrwt>
<totfact> 0.17283875E+00</totfact>
</mgrwt>
</event>
<event>
10   0  0.7688500E-08  0.1469745E+03  0.7546771E-02  0.1321239E+00
       -2   -1    0    0    0  501  0.00000000000E+00  0.00000000000E+00  0.13968884396E+04  0.13968884396E+04  0.00000000000E+00 0.  1.
        2   -1    0    0  502    0  0.00000000000E+00  0.00000000000E+00 -0.38515578394E+02  0.38515578394E+02  0.00000000000E+00 0. -1.
       23    2    1    2    0    0 -0.47942391044E+02  0.68828625707E+02  0.39767814415E+03  0.41663886264E+03  0.91674330950E+02 0.  0.
       23    2    1    2    0    0  0.47258300964E+02  0.48284786638E+02  0.32104284145E+03  0.33994227280E+03  0.89036369849E+02 0.  0.
      -11    1    4    4    0    0  0.62507031823E+02  0.51226069412E+02  0.17141634130E+03  0.18951200827E+03  0.00000000000E+00 0. -1.
       11    1    4    4    0    0 -0.15248730859E+02 -0.29412827733E+01  0.14962650015E+03  0.15043026453E+03  0.00000000000E+00 0.  1.
      -13    1    3    3    0    0 -0.12923632362E+02 -0.98155697308E+01  0.90328339368E+01  0.18573038833E+02  0.00000000000E+00 0.  1.
       13    1    3    3    0    0 -0.35018758682E+02  0.78644195437E+02  0.38864531021E+03  0.39806582381E+03  0.00000000000E+00 0. -1.
        1    1    1    2  502    0  0.30594777041E+01  0.46566583074E+02  0.57290611274E+02  0.73891956282E+02  0.00000000000E+00 0. -1.
       -1    1    1    2    0  501 -0.23753876240E+01 -0.16367999542E+03  0.58236126431E+03  0.60493092625E+03  0.00000000000E+00 0.  1.
<mgrwt>
<rscale>  0 0.82818207E+02</rscale>
<asrwt>0</asrwt>
<pdfrwt beam="1">  1        2 0.59254736E-02 0.46666980E+02</pdfrwt>
<pdfrwt beam="2">  1       -2 0.21490591E+00 0.14697448E+03</pdfrwt>
<totfact> 0.13253422E+02</totfact>
</mgrwt>
</event>
<event>
10   0  0.7688500E-08  0.1340939E+03  0.7546771E-02  0.1250145E+00
        2   -1    0    0  502    0  0.00000000000E+00  0.00000000000E+00  0.98486740996E+03  0.98486740996E+03  0.00000000000E+00 0. -1.
        1   -1    0    0  501    0  0.00000000000E+00  0.00000000000E+00 -0.87086944332E+03  0.87086944332E+03  0.00000000000E+00 0. -1.
       23    2    1    2    0    0  0.88882374371E+02  0.77361121056E+02 -0.23060025434E+03  0.27561317663E+03  0.94346840442E+02 0.  0.
       23    2    1    2    0    0  0.41888539025E+02 -0.92653748532E+02  0.46843842603E+03  0.48812804996E+03  0.92168689700E+02 0.  0.
      -11    1    3    3    0    0  0.78018879297E+02  0.96108232169E+02 -0.21759529831E+03  0.25034266848E+03  0.00000000000E+00 0.  1.
       11    1    3    3    0    0  0.10863495074E+02 -0.18747111113E+02 -0.13004956037E+02  0.25270508144E+02  0.00000000000E+00 0. -1.
      -13    1    4    4    0    0  0.20440599945E+02 -0.99141778296E+02  0.26867450354E+03  0.28711130103E+03  0.00000000000E+00 0. -1.
       13    1    4    4    0    0  0.21447939080E+02  0.64880297640E+01  0.19976392249E+03  0.20101674893E+03  0.00000000000E+00 0.  1.
        2    1    1    2  501    0 -0.11275653792E+03 -0.83119756050E+02 -0.59451999673E+03  0.61080025966E+03  0.00000000000E+00 0. -1.
        1    1    1    2  502    0 -0.18014375476E+02  0.98412383526E+02  0.47067979169E+03  0.48119536704E+03  0.00000000000E+00 0. -1.
<mgrwt>
<rscale>  0 0.11582644E+03</rscale>
<asrwt>0</asrwt>
<pdfrwt beam="1">  1        2 0.15151806E+00 0.10004756E+03</pdfrwt>
<pdfrwt beam="2">  1        1 0.13397991E+00 0.13409386E+03</pdfrwt>
<totfact> 0.80991649E+01</totfact>
</mgrwt>
</event>
<event>
10   0  0.7688500E-08  0.8208640E+02  0.7546771E-02  0.1352668E+00
        2   -1    0    0  502    0  0.00000000000E+00  0.00000000000E+00  0.15905642512E+04  0.15905642512E+04  0.00000000000E+00 0. -1.
       -4   -1    0    0    0  501  0.00000000000E+00  0.00000000000E+00 -0.15721416418E+03  0.15721416418E+03  0.00000000000E+00 0.  1.
       23    2    1    2    0    0  0.60063653537E+02  0.15042213000E+02  0.77987975480E+02  0.13427946557E+03  0.90082961245E+02 0.  0.
       23    2    1    2    0    0 -0.49125094467E+02 -0.38666879773E+02  0.31507243211E+02  0.11627505432E+03  0.92837381400E+02 0.  0.
      -11    1    3    3    0    0  0.69067034632E+02  0.18434118889E+02  0.18257998181E+02  0.73779580574E+02  0.00000000000E+00 0.  1.
       11    1    3    3    0    0 -0.90033810950E+01 -0.33919058883E+01  0.59729977299E+02  0.60499884998E+02  0.00000000000E+00 0. -1.
      -13    1    4    4    0    0 -0.10986055956E+02 -0.54382404162E+02  0.46494261895E+02  0.72386847542E+02  0.00000000000E+00 0. -1.
       13    1    4    4    0    0 -0.38139038511E+02  0.15715524389E+02 -0.14987018685E+02  0.43888206781E+02  0.00000000000E+00 0.  1.
        1    1    1    2  502    0  0.16773221485E+02 -0.61304906911E+02  0.13865991955E+04  0.13880551003E+04  0.00000000000E+00 0. -1.
       -3    1    1    2    0  501 -0.27711780555E+02  0.84929573684E+02 -0.62744327100E+02  0.10916879523E+03  0.00000000000E+00 0.  1.
<mgrwt>
<rscale>  0 0.72230573E+02</rscale>
<asrwt>0</asrwt>
<pdfrwt beam="1">  1        2 0.24470219E+00 0.63558104E+02</pdfrwt>
<pdfrwt beam="2">  1       -4 0.24186794E-01 0.82086395E+02</pdfrwt>
<totfact> 0.10638984E+02</totfact>
</mgrwt>
</event>
<event>
10   0  0.7688500E-08  0.1544493E+03  0.7546771E-02  0.1259400E+00
        2   -1    0    0  502    0  0.00000000000E+00  0.00000000000E+00  0.46838962409E+04  0.46838962409E+04  0.00000000000E+00 0. -1.
        1   -1    0    0  501    0  0.00000000000E+00  0.00000000000E+00 -0.64384255837E+02  0.64384255837E+02  0.00000000000E+00 0. -1.
       23    2    1    2    0    0  0.17765448018E+03  0.15470524893E+03  0.74324531532E+03  0.78497814609E+03  0.91006937792E+02 0.  0.
       23    2    1    2    0    0  0.55120138495E+01 -0.64472089184E+02  0.36529254932E+02  0.11597856632E+03  0.89048350912E+02 0.  0.
      -11    1    3    3    0    0 -0.90848800779E+01  0.41241050017E+01  0.60464775047E+02  0.61282398040E+02  0.00000000000E+00 0.  1.
       11    1    3    3    0    0  0.18673936025E+03  0.15058114393E+03  0.68278054027E+03  0.72369574805E+03  0.00000000000E+00 0. -1.
      -13    1    4    4    0    0 -0.46582122892E+01  0.10484406102E+02  0.38638586670E+02  0.40305856806E+02  0.00000000000E+00 0.  1.
       13    1    4    4    0    0  0.10170226139E+02 -0.74956495286E+02 -0.21093317372E+01  0.75672709517E+02  0.00000000000E+00 0. -1.
        2    1    1    2  501    0 -0.41308709429E+02 -0.67631020831E+02  0.73392195704E+03  0.73818818975E+03  0.00000000000E+00 0. -1.
        1    1    1    2  502    0 -0.14185778460E+03 -0.22602138911E+02  0.31058154577E+04  0.31091355945E+04  0.00000000000E+00 0. -1.
<mgrwt>
<rscale>  0 0.11063414E+03</rscale>
<asrwt>0</asrwt>
<pdfrwt beam="1">  1        2 0.72059942E+00 0.79248750E+02</pdfrwt>
<pdfrwt beam="2">  1        1 0.99052701E-02 0.15444927E+03</pdfrwt>
<totfact> 0.13134317E+01</totfact>
</mgrwt>
</event>
<event>
11   0  0.7688500E-08  0.1269678E+03  0.7546771E-02  0.1239989E+00
        1   -1    0    0  501    0  0.00000000000E+00  0.00000000000E+00  0.93489529147E+03  0.93489529147E+03  0.00000000000E+00 0. -1.
       -1   -1    0    0    0  501  0.00000000000E+00  0.00000000000E+00 -0.49652796022E+02  0.49652796022E+02  0.00000000000E+00 0.  1.
       23    2    1    2    0    0  0.74558573134E+02  0.28540085875E+02  0.10916577728E+03  0.16423922366E+03  0.93187114609E+02 0.  0.
       23    2    1    2    0    0  0.81123908545E+01  0.59453232839E+02  0.23909192744E+03  0.26230857604E+03  0.89667951444E+02 0.  0.
       23    2    1    2    0    0 -0.82670963988E+02 -0.87993318715E+02  0.53698479073E+03  0.55800028780E+03  0.91838680731E+02 0.  0.
      -11    1    3    3    0    0  0.67120342495E+01 -0.74405193223E+00 -0.16851005999E+02  0.18153826600E+02  0.00000000000E+00 0. -1.
       11    1    3    3    0    0  0.67846538884E+02  0.29284137808E+02  0.12601678327E+03  0.14608539705E+03  0.00000000000E+00 0.  1.
      -13    1    5    5    0    0 -0.63259039097E+01  0.27718722167E+01 -0.11049989784E+01  0.69943805017E+01  0.00000000000E+00 0.  1.
       13    1    5    5    0    0 -0.76345060079E+02 -0.90765190931E+02  0.53808978971E+03  0.55100590730E+03  0.00000000000E+00 0. -1.
        3    1    4    4  502    0 -0.43674828629E+01 -0.23357616464E+02  0.62514092809E+02  0.66877985564E+02  0.00000000000E+00 0. -1.
       -3    1    4    4    0  502  0.12479873717E+02  0.82810849303E+02  0.17657783463E+03  0.19543059047E+03  0.00000000000E+00 0.  1.
<mgrwt>
<rscale>  0 0.12190410E+03</rscale>
<asrwt>0</asrwt>
<pdfrwt beam="1">  1        1 0.14383004E+00 0.12696783E+03</pdfrwt>
<pdfrwt beam="2">  1       -1 0.76388917E-02 0.12696783E+03</pdfrwt>
<totfact> 0.16470483E+03</totfact>
</mgrwt>
</event>
<event>
10   0  0.7688500E-08  0.3380925E+02  0.7546771E-02  0.1657540E+00
        2   -1    0    0  502    0  0.00000000000E+00  0.00000000000E+00  0.30997845063E+04  0.30997845063E+04  0.00000000000E+00 0. -1.
        1   -1    0    0  501    0  0.00000000000E+00  0.00000000000E+00 -0.33141981107E+03  0.33141981107E+03  0.00000000000E+00 0. -1.
       23    2    1    2    0    0 -0.19185482761E+02 -0.31179751994E+02  0.16173679330E+04  0.16203016158E+04  0.90321845811E+02 0.  0.
       23    2    1    2    0    0  0.23323815289E+02  0.46155562026E+02 -0.18633775653E+03  0.21413896017E+03  0.91974988393E+02 0.  0.
      -11    1    3    3    0    0  0.89911682699E+01 -0.27951618725E+02  0.16087372075E+03  0.16353130626E+03  0.00000000000E+00 0.  1.
       11    1    3    3    0    0 -0.28176651031E+02 -0.32281332688E+01  0.14564942122E+04  0.14567703095E+04  0.00000000000E+00 0. -1.
      -13    1    4    4    0    0  0.37572411832E+02 -0.14469599096E+02 -0.98977195763E+02  0.10685289285E+03  0.00000000000E+00 0. -1.
       13    1    4    4    0    0 -0.14248596543E+02  0.60625161122E+02 -0.87360560765E+02  0.10728606732E+03  0.00000000000E+00 0.  1.
        2    1    1    2  501    0  0.11128508416E+02  0.15210355510E+02 -0.12883391484E+03  0.13020513134E+03  0.00000000000E+00 0. -1.
        1    1    1    2  502    0 -0.15266840944E+02 -0.30186165541E+02  0.14661684336E+04  0.14665586101E+04  0.00000000000E+00 0. -1.
<mgrwt>
<rscale>  0 0.25242689E+02</rscale>
<asrwt>0</asrwt>
<pdfrwt beam="1">  1        2 0.47688992E+00 0.33809255E+02</pdfrwt>
<pdfrwt beam="2">  1        1 0.50987663E-01 0.18846714E+02</pdfrwt>
<totfact> 0.27406446E+01</totfact>
</mgrwt>
</event>
<event>
10   0  0.7688500E-08  0.9746759E+02  0.7546771E-02  0.1287469E+00
        2   -1    0    0  502    0  0.00000000000E+00  0.00000000000E+00  0.55117292964E+02  0.55117292964E+02  0.00000000000E+00 0. -1.
        1   -1    0    0  501    0  0.00000000000E+00  0.00000000000E+00 -0.13672986524E+04  0.13672986524E+04  0.00000000000E+00 0. -1.
       23    2    1    2    0    0  0.54748164194E+02  0.25252971206E+02 -0.25609395964E+03  0.27756329325E+03  0.88443154392E+02 0.  0.
       23    2    1    2    0    0 -0.44496899206E+02 -0.58474672211E+01 -0.31600018400E+03  0.33194438716E+03  0.91196452608E+02 0.  0.
      -11    1    3    3    0    0  0.35833944668E+02  0.71217972950E+01 -0.24721312073E+03  0.24989821658E+03  0.00000000000E+00 0.  1.
       11    1    3    3    0    0  0.18914219525E+02  0.18131173911E+02 -0.88808389108E+01  0.27665076674E+02  0.00000000000E+00 0. -1.
      -13    1    4    4    0    0 -0.10732185384E+02 -0.33933780571E+02 -0.25091784415E+03  0.25342937040E+03  0.00000000000E+00 0.  1.
       13    1    4    4    0    0 -0.33764713822E+02  0.28086313350E+02 -0.65082339843E+02  0.78515016758E+02  0.00000000000E+00 0. -1.
        2    1    1    2  501    0  0.97338175419E+02 -0.50210169493E+01 -0.68365621478E+03  0.69056915006E+03  0.00000000000E+00 0. -1.
        1    1    1    2  502    0 -0.10758944041E+03 -0.14384487036E+02 -0.56431000993E+02  0.12233911487E+03  0.00000000000E+00 0. -1.
<mgrwt>
<rscale>  0 0.96665203E+02</rscale>
<asrwt>0</asrwt>
<pdfrwt beam="1">  1        2 0.84795835E-02 0.95869422E+02</pdfrwt>
<pdfrwt beam="2">  1        1 0.21035364E+00 0.97467590E+02</pdfrwt>
<totfact> 0.96141486E+02</totfact>
</mgrwt>
</event>
<event>
10   0  0.7688500E-08  0.1507608E+03  0.7546771E-02  0.1234235E+00
        2   -1    0    0  502    0  0.00000000000E+00  0.00000000000E+00  0.56327549243E+03  0.56327549243E+03  0.00000000000E+00 0. -1.
        1   -1    0    0  501    0  0.00000000000E+00  0.00000000000E+00 -0.48924098188E+03  0.48924098188E+03  0.00000000000E+00 0. -1.
       23    2    1    2    0    0 -0.23589307428E+02 -0.80138785906E+01  0.90023021584E+02  0.13032120530E+03  0.90877909639E+02 0.  0.
       23    2    1    2    0    0 -0.18306837448E+03 -0.42808178457E+02  0.48627918313E+02  0.21596521893E+03  0.94497256421E+02 0.  0.
      -11    1    3    3    0    0  0.29774030176E+02  0.16610984106E+02  0.22727111528E+02  0.40974861370E+02  0.00000000000E+00 0.  1.
       11    1    3    3    0    0 -0.53363337604E+02 -0.24624862697E+02  0.67295910056E+02  0.89346343928E+02  0.00000000000E+00 0. -1.
      -13    1    4    4    0    0 -0.14318508875E+02 -0.35731876749E+01 -0.23945683287E+02  0.28127977436E+02  0.00000000000E+00 0.  1.
       13    1    4    4    0    0 -0.16874986561E+03 -0.39234990782E+02  0.72573601600E+02  0.18783724150E+03  0.00000000000E+00 0. -1.
        2    1    1    2  501    0  0.97462164550E+02  0.11429409005E+03 -0.35722840298E+03  0.38752308891E+03  0.00000000000E+00 0. -1.
        1    1    1    2  502    0  0.10919551736E+03 -0.63472032999E+02  0.29261197364E+03  0.31870696117E+03  0.00000000000E+00 0. -1.
<mgrwt>
<rscale>  0 0.12553533E+03</rscale>
<asrwt>0</asrwt>
<pdfrwt beam="1">  1        2 0.86657768E-01 0.10453060E+03</pdfrwt>
<pdfrwt beam="2">  1        1 0.75267843E-01 0.15076082E+03</pdfrwt>
<totfact> 0.35644422E+02</totfact>
</mgrwt>
</event>
<event>
10   0  0.7688500E-08  0.1044444E+03  0.7546771E-02  0.1321815E+00
        1   -1    0    0  501    0  0.00000000000E+00  0.00000000000E+00  0.18123282284E+04  0.18123282284E+04  0.00000000000E+00 0. -1.
        2   -1    0    0  502    0  0.00000000000E+00  0.00000000000E+00 -0.24328671436E+04  0.24328671436E+04  0.00000000000E+00 0. -1.
       23    2    1    2    0    0  0.18529590565E+03  0.35761458397E+02  0.36352083083E+02  0.21052918194E+03  0.85951195148E+02 0.  0.
       23    2    1    2    0    0 -0.15601040781E+03  0.68538348224E+02  0.60730949903E+03  0.63768022325E+03  0.93672231686E+02 0.  0.
      -11    1    3    3    0    0  0.16991703808E+03  0.57149338883E+02  0.22240597579E+02  0.18064465379E+03  0.00000000000E+00 0.  1.
       11    1    3    3    0    0  0.15378867571E+02 -0.21387880485E+02  0.14111485504E+02  0.29884528147E+02  0.00000000000E+00 0. -1.
      -13    1    4    4    0    0 -0.24417691247E+02  0.17240168365E+02  0.27475532536E+03  0.27637643869E+03  0.00000000000E+00 0.  1.
       13    1    4    4    0    0 -0.13159271656E+03  0.51298179859E+02  0.33255417367E+03  0.36130378456E+03  0.00000000000E+00 0. -1.
        2    1    1    2  501    0 -0.81859216454E+02 -0.65511866221E+02  0.10633561582E+04  0.10685125432E+04  0.00000000000E+00 0. -1.
        1    1    1    2  502    0  0.52573718616E+02 -0.38787940401E+02 -0.23275566555E+04  0.23284734237E+04  0.00000000000E+00 0. -1.
<mgrwt>
<rscale>  0 0.82605973E+02</rscale>
<asrwt>0</asrwt>
<pdfrwt beam="1">  1        2 0.37428725E+00 0.65333760E+02</pdfrwt>
<pdfrwt beam="2">  1        1 0.27881973E+00 0.10444442E+03</pdfrwt>
<totfact> 0.35750115E+00</totfact>
</mgrwt>
</event>
<event>
10   0  0.7688500E-08  0.2967552E+02  0.7546771E-02  0.1663843E+00
       -3   -1    0    0    0  501  0.00000000000E+00  0.00000000000E+00  0.41727633815E+02  0.41727633815E+02  0.00000000000E+00 0.  1.
        1   -1    0    0  502    0  0.00000000000E+00  0.00000000000E+00 -0.24959539755E+04  0.24959539755E+04  0.00000000000E+00 0. -1.
       23    2    1    2    0    0  0.16877407531E+03 -0.84168263083E+02 -0.13510473960E+04  0.13671061612E+04  0.89895521184E+02 0.  0.
       23    2    1    2    0    0 -0.13446252510E+03  0.62092521648E+02 -0.24781483357E+03  0.30218398976E+03  0.89259845560E+02 0.  0.
      -11    1    4    4    0    0 -0.12840012375E+03  0.81639322175E+02 -0.22389840959E+03  0.27070660968E+03  0.00000000000E+00 0.  1.
       11    1    4    4    0    0 -0.60624013403E+01 -0.19546800527E+02 -0.23916423976E+02  0.31477380079E+02  0.00000000000E+00 0. -1.
      -13    1    3    3    0    0  0.15824183212E+03 -0.49158191311E+02 -0.94512320944E+03  0.95953889250E+03  0.00000000000E+00 0.  1.
       13    1    3    3    0    0  0.10532243183E+02 -0.35010071772E+02 -0.40592418659E+03  0.40756726872E+03  0.00000000000E+00 0. -1.
        2    1    1    2  502    0 -0.48263542761E+01  0.20161400698E+02 -0.82755857461E+03  0.82781819875E+03  0.00000000000E+00 0. -1.
       -4    1    1    2    0  501 -0.29485195936E+02  0.19143407362E+01 -0.27805537519E+02  0.40573259625E+02  0.00000000000E+00 0.  1.
<mgrwt>
<rscale>  0 0.24803313E+02</rscale>
<asrwt>0</asrwt>
<pdfrwt beam="1">  1        1 0.38399292E+00 0.20731034E+02</pdfrwt>
<pdfrwt beam="2">  1       -3 0.64196360E-02 0.29675525E+02</pdfrwt>
<totfact> 0.14827149E+02</totfact>
</mgrwt>
</event>
<event>
11   0  0.7688500E-08  0.1624582E+03  0.7546771E-02  0.1217148E+00
       -2   -1    0    0    0  501  0.00000000000E+00  0.00000000000E+00  0.35643749582E+03  0.35643749582E+03  0.00000000000E+00 0.  1.
        1   -1    0    0  501    0  0.00000000000E+00  0.00000000000E+00 -0.19544795897E+03  0.19544795897E+03  0.00000000000E+00 0. -1.
       23    2    1    2    0    0  0.33030664100E+02  0.12891557104E+03  0.11452642817E+03  0.19708379903E+03  0.89529167653E+02 0.  0.
      -24    2    1    2    0    0  0.11582408501E+02 -0.11620570229E+02 -0.10563178082E+03  0.13411640399E+03  0.80993498878E+02 0.  0.
       23    2    1    2    0    0 -0.44613072601E+02 -0.11729500081E+03  0.15209488950E+03  0.22068525177E+03  0.99099351531E+02 0.  0.
      -11    1    3    3    0    0 -0.16225177656E+02 -0.11990439519E+01  0.30457912260E+02  0.34530834273E+02  0.00000000000E+00 0.  1.
       11    1    3    3    0    0  0.49255841756E+02  0.13011461499E+03  0.84068515911E+02  0.16255296475E+03  0.00000000000E+00 0. -1.
      -13    1    5    5    0    0 -0.12802873780E+02 -0.21173190458E+02 -0.12285468251E+02  0.27625175137E+02  0.00000000000E+00 0. -1.
       13    1    5    5    0    0 -0.31810198821E+02 -0.96121810355E+02  0.16438035775E+03  0.19306007663E+03  0.00000000000E+00 0.  1.
        3    1    4    4  502    0  0.28658103354E+02  0.18500134189E+01 -0.26238244349E+01  0.28837369716E+02  0.00000000000E+00 0. -1.
       -4    1    4    4    0  502 -0.17075694853E+02 -0.13470583648E+02 -0.10300795639E+03  0.10527903427E+03  0.00000000000E+00 0.  1.
<mgrwt>
<rscale>  0 0.13719931E+03</rscale>
<asrwt>0</asrwt>
<pdfrwt beam="1">  1        1 0.30068917E-01 0.16245819E+03</pdfrwt>
<pdfrwt beam="2">  1       -2 0.54836538E-01 0.16245819E+03</pdfrwt>
<totfact> 0.42317930E+02</totfact>
</mgrwt>
</event>
<event>
10   0  0.7688500E-08  0.3904498E+03  0.7546771E-02  0.1331648E+00
        2   -1    0    0  502    0  0.00000000000E+00  0.00000000000E+00  0.12891169003E+04  0.12891169003E+04  0.00000000000E+00 0. -1.
        1   -1    0    0  501    0  0.00000000000E+00  0.00000000000E+00 -0.37470593264E+03  0.37470593264E+03  0.00000000000E+00 0. -1.
       23    2    1    2    0    0 -0.12953074031E+03  0.12159471240E+03  0.13707040428E+03  0.24101523995E+03  0.87957736389E+02 0.  0.
       23    2    1    2    0    0 -0.18036676000E+03  0.15705701538E+03  0.85449922920E+03  0.89204832818E+03  0.91554425919E+02 0.  0.
      -11    1    3    3    0    0 -0.11142939641E+03  0.12165267927E+03  0.14647667493E+03  0.22061573166E+03  0.00000000000E+00 0. -1.
       11    1    3    3    0    0 -0.18101343892E+02 -0.57966864163E-01 -0.94062706512E+01  0.20399508289E+02  0.00000000000E+00 0.  1.
      -13    1    4    4    0    0 -0.88356948239E+02  0.39859907203E+02  0.46559602857E+03  0.47557904109E+03  0.00000000000E+00 0.  1.
       13    1    4    4    0    0 -0.92009811763E+02  0.11719710818E+03  0.38890320063E+03  0.41646928709E+03  0.00000000000E+00 0. -1.
        2    1    1    2  501    0  0.31904718097E+03 -0.26549990931E+03 -0.16115006286E+03  0.44525346522E+03  0.00000000000E+00 0. -1.
        1    1    1    2  502    0 -0.91496806582E+01 -0.13151818471E+02  0.83991397003E+02  0.85505799544E+02  0.00000000000E+00 0. -1.
<mgrwt>
<rscale>  0 0.79092183E+02</rscale>
<asrwt>0</asrwt>
<pdfrwt beam="1">  1        2 0.19832568E+00 0.16021454E+02</pdfrwt>
<pdfrwt beam="2">  1        1 0.57647067E-01 0.39044980E+03</pdfrwt>
<totfact> 0.19597183E+02</totfact>
</mgrwt>
</event>
<event>
10   0  0.7688500E-08  0.7366272E+02  0.7546771E-02  0.1408039E+00
       -2   -1    0    0    0  501  0.00000000000E+00  0.00000000000E+00  0.18564114306E+03  0.18564114306E+03  0.00000000000E+00 0.  1.
        2   -1    0    0  502    0  0.00000000000E+00  0.00000000000E+00 -0.68235036287E+03  0.68235036287E+03  0.00000000000E+00 0. -1.
       23    2    1    2    0    0  0.30239037053E+02  0.12982359876E+02 -0.72682042990E+02  0.10875348515E+03  0.73903316087E+02 0.  0.
       23    2    1    2    0    0  0.46246609936E+02 -0.17947871524E+01  0.32215401987E+02  0.10591473152E+03  0.89655607952E+02 0.  0.
      -11    1    3    3    0    0  0.37227196571E+02  0.34943720898E+02 -0.27403618009E+02  0.57947269779E+02  0.00000000000E+00 0. -1.
       11    1    3    3    0    0 -0.69881595179E+01 -0.21961361022E+02 -0.45278424980E+02  0.50806215369E+02  0.00000000000E+00 0.  1.
      -13    1    4    4    0    0  0.15569425532E+02  0.21093155273E+02 -0.25557829640E+02  0.36613260804E+02  0.00000000000E+00 0. -1.
       13    1    4    4    0    0  0.30677184403E+02 -0.22887942425E+02  0.57773231627E+02  0.69301470720E+02  0.00000000000E+00 0.  1.
        1    1    1    2  502    0 -0.21725586058E+02  0.39514041648E+02 -0.53957677645E+03  0.54145771604E+03  0.00000000000E+00 0. -1.
       -1    1    1    2    0  501 -0.54760060931E+02 -0.50701614371E+02  0.83334197650E+02  0.11186557322E+03  0.00000000000E+00 0.  1.
<mgrwt>
<rscale>  0 0.57633831E+02</rscale>
<asrwt>0</asrwt>
<pdfrwt beam="1">  1        2 0.10497698E+00 0.45092800E+02</pdfrwt>
<pdfrwt beam="2">  1       -2 0.28560176E-01 0.73662724E+02</pdfrwt>
<totfact> 0.49939165E+02</totfact>
</mgrwt>
</event>
<event>
10   0  0.7688500E-08  0.5519214E+02  0.7546771E-02  0.1484165E+00
       -1   -1    0    0    0  501  0.00000000000E+00  0.00000000000E+00  0.46501539730E+03  0.46501539730E+03  0.00000000000E+00 0.  1.
        1   -1    0    0  502    0  0.00000000000E+00  0.00000000000E+00 -0.53445982401E+03  0.53445982401E+03  0.00000000000E+00 0. -1.
       23    2    1    2    0    0  0.35613486188E+02 -0.31404531799E+02 -0.13056606547E+03  0.16482130838E+03  0.88679204031E+02 0.  0.
       23    2    1    2    0    0  0.17081667590E+02  0.48763503142E+02 -0.14702060759E+03  0.17643476481E+03  0.82731521010E+02 0.  0.
      -11    1    3    3    0    0 -0.49745726673E+00 -0.48037268657E+02 -0.11005898265E+03  0.12008666164E+03  0.00000000000E+00 0. -1.
       11    1    3    3    0    0  0.36110943454E+02  0.16632736857E+02 -0.20507082822E+02  0.44734646734E+02  0.00000000000E+00 0.  1.
      -13    1    4    4    0    0 -0.21443676438E+02  0.14560715368E+02 -0.64344845121E+01  0.26706708561E+02  0.00000000000E+00 0. -1.
       13    1    4    4    0    0  0.38525344028E+02  0.34202787773E+02 -0.14058612308E+03  0.14972805625E+03  0.00000000000E+00 0.  1.
        1    1    1    2  502    0 -0.53620421326E+02  0.16856612743E+02 -0.22083637966E+03  0.22787716331E+03  0.00000000000E+00 0. -1.
       -1    1    1    2    0  501  0.92526754822E+00 -0.34215584086E+02  0.42897862601E+03  0.43034198481E+03  0.00000000000E+00 0.  1.
<mgrwt>
<rscale>  0 0.43464026E+02</rscale>
<asrwt>0</asrwt>
<pdfrwt beam="1">  1        1 0.82224588E-01 0.55192136E+02</pdfrwt>
<pdfrwt beam="2">  1       -1 0.71540830E-01 0.34228092E+02</pdfrwt>
<totfact> 0.93938811E+01</totfact>
</mgrwt>
</event>
<event>
10   0  0.7688500E-08  0.3833900E+03  0.7546771E-02  0.1256638E+00
        2   -1    0    0  502    0  0.00000000000E+00  0.00000000000E+00  0.22517829652E+04  0.22517829652E+04  0.00000000000E+00 0. -1.
        1   -1    0    0  501    0  0.00000000000E+00  0.00000000000E+00 -0.18713631463E+04  0.18713631463E+04  0.00000000000E+00 0. -1.
       23    2    1    2    0    0  0.15849328299E+03 -0.16118275504E+03 -0.48652732781E+03  0.54513444064E+03  0.96761130597E+02 0.  0.
       23    2    1    2    0    0  0.16386006465E+03 -0.96810269700E+02 -0.28195950466E+03  0.35202198909E+03  0.90531593566E+02 0.  0.
      -11    1    3    3    0    0  0.24015358627E+02 -0.72480737446E+02 -0.22876144805E+03  0.24116798059E+03  0.00000000000E+00 0.  1.
       11    1    3    3    0    0  0.13447792436E+03 -0.88702017591E+02 -0.25776587977E+03  0.30396646005E+03  0.00000000000E+00 0. -1.
      -13    1    4    4    0    0  0.95575203316E+02 -0.10345723396E+03 -0.17065733055E+03  0.22127345801E+03  0.00000000000E+00 0.  1.
       13    1    4    4    0    0  0.68284861333E+02  0.66469642580E+01 -0.11130217411E+03  0.13074853109E+03  0.00000000000E+00 0. -1.
        2    1    1    2  501    0 -0.15772194711E+02  0.28766579135E+02 -0.10215287120E+04  0.10220553740E+04  0.00000000000E+00 0. -1.
        1    1    1    2  502    0 -0.30658115292E+03  0.22922644560E+03  0.21704353633E+04  0.22039343078E+04  0.00000000000E+00 0. -1.
<mgrwt>
<rscale>  0 0.11215057E+03</rscale>
<asrwt>0</asrwt>
<pdfrwt beam="1">  1        2 0.34642815E+00 0.38338995E+03</pdfrwt>
<pdfrwt beam="2">  1        1 0.28790202E+00 0.32806679E+02</pdfrwt>
<totfact> 0.38150848E+00</totfact>
</mgrwt>
</event>
<event>
10   0  0.7688500E-08  0.1027210E+03  0.7546771E-02  0.1438348E+00
        2   -1    0    0  502    0  0.00000000000E+00  0.00000000000E+00  0.20109202566E+02  0.20109202566E+02  0.00000000000E+00 0. -1.
        1   -1    0    0  501    0  0.00000000000E+00  0.00000000000E+00 -0.17185078887E+04  0.17185078887E+04  0.00000000000E+00 0. -1.
       23    2    1    2    0    0  0.51870527873E+02 -0.62880633653E+02 -0.88193686855E+03  0.89043846451E+03  0.91779590444E+02 0.  0.
       23    2    1    2    0    0 -0.11843019220E+02  0.94609765116E+01 -0.57441779102E+03  0.58190467402E+03  0.91801328009E+02 0.  0.
      -11    1    3    3    0    0  0.25955318587E+02  0.20911094903E+02 -0.31480699291E+03  0.31656657315E+03  0.00000000000E+00 0. -1.
       11    1    3    3    0    0  0.25915209286E+02 -0.83791728556E+02 -0.56712987564E+03  0.57387189136E+03  0.00000000000E+00 0.  1.
      -13    1    4    4    0    0 -0.87909049231E+01  0.37513000818E+02 -0.10858595569E+03  0.11521898721E+03  0.00000000000E+00 0. -1.
       13    1    4    4    0    0 -0.30521142969E+01 -0.28052024306E+02 -0.46583183533E+03  0.46668568681E+03  0.00000000000E+00 0.  1.
        2    1    1    2  501    0 -0.15286715984E+02  0.60150628227E+02 -0.22947379780E+03  0.23771833256E+03  0.00000000000E+00 0. -1.
        1    1    1    2  502    0 -0.24740792669E+02 -0.67309710860E+01 -0.12570228813E+02  0.28555620219E+02  0.00000000000E+00 0. -1.
<mgrwt>
<rscale>  0 0.51320285E+02</rscale>
<asrwt>0</asrwt>
<pdfrwt beam="1">  1        2 0.30937235E-02 0.25640062E+02</pdfrwt>
<pdfrwt beam="2">  1        1 0.26438583E+00 0.10272096E+03</pdfrwt>
<totfact> 0.17573940E+03</totfact>
</mgrwt>
</event>
<event>
10   0  0.7688500E-08  0.2946331E+03  0.7546771E-02  0.1121036E+00
        1   -1    0    0  501    0  0.00000000000E+00  0.00000000000E+00  0.45346478818E+04  0.45346478818E+04  0.00000000000E+00 0. -1.
        2   -1    0    0  502    0  0.00000000000E+00  0.00000000000E+00 -0.73168094324E+03  0.73168094324E+03  0.00000000000E+00 0. -1.
       23    2    1    2    0    0  0.14621057171E+03  0.11484783464E+03  0.10558179540E+04  0.10760364964E+04  0.92387408948E+02 0.  0.
       23    2    1    2    0    0 -0.86346614888E+02 -0.25770406747E+02  0.82574975628E+03  0.83526968637E+03  0.87709390654E+02 0.  0.
      -11    1    4    4    0    0  0.57358888310E+01  0.23513130543E+01  0.29666731681E+01  0.68724263145E+01  0.00000000000E+00 0.  1.
       11    1    4    4    0    0 -0.92082503719E+02 -0.28121719802E+02  0.82278308311E+03  0.82839726006E+03  0.00000000000E+00 0. -1.
      -13    1    3    3    0    0  0.98229118284E+02  0.10977844051E+03  0.92393926538E+03  0.93560890964E+03  0.00000000000E+00 0. -1.
       13    1    3    3    0    0  0.47981453430E+02  0.50693941396E+01  0.13187868859E+03  0.14042758680E+03  0.00000000000E+00 0.  1.
        2    1    1    2  501    0  0.26871068048E+01  0.20002553256E+03  0.26036953186E+04  0.26113687496E+04  0.00000000000E+00 0. -1.
        1    1    1    2  502    0 -0.62551063631E+02 -0.28910296046E+03 -0.68229609026E+03  0.74365389267E+03  0.00000000000E+00 0. -1.
<mgrwt>
<rscale>  0 0.23814269E+03</rscale>
<asrwt>0</asrwt>
<pdfrwt beam="1">  1        2 0.11256630E+00 0.29463315E+03</pdfrwt>
<pdfrwt beam="2">  1        1 0.69763814E+00 0.19248324E+03</pdfrwt>
<totfact> 0.24036635E-01</totfact>
</mgrwt>
</event>
<event>
10   0  0.7688500E-08  0.1374102E+03  0.7546771E-02  0.1256129E+00
        2   -1    0    0  502    0  0.00000000000E+00  0.00000000000E+00  0.10091533210E+04  0.10091533210E+04  0.00000000000E+00 0. -1.
       -4   -1    0    0    0  501  0.00000000000E+00  0.00000000000E+00 -0.23225935870E+03  0.23225935870E+03  0.00000000000E+00 0.  1.
       23    2    1    2    0    0  0.21595012306E+02  0.14013845012E+03  0.32016288783E+03  0.36282784908E+03  0.95050742085E+02 0.  0.
       23    2    1    2    0    0  0.12573038083E+02 -0.37562375597E+02 -0.66556620473E+02  0.12148326468E+03  0.93591594286E+02 0.  0.
      -11    1    4    4    0    0  0.17034837222E+01 -0.65172249159E+02 -0.64547990555E+02  0.91742939793E+02  0.00000000000E+00 0.  1.
       11    1    4    4    0    0  0.10869554361E+02  0.27609873562E+02 -0.20086299178E+01  0.29740324885E+02  0.00000000000E+00 0. -1.
      -13    1    3    3    0    0 -0.77790156406E+01  0.13292019046E+03  0.29434704325E+03  0.32306109637E+03  0.00000000000E+00 0. -1.
       13    1    3    3    0    0  0.29374027947E+02  0.72182596636E+01  0.25815844571E+02  0.39766752713E+02  0.00000000000E+00 0.  1.
        1    1    1    2  502    0 -0.53087101854E+02  0.75134385672E+02  0.56593924555E+03  0.57336781035E+03  0.00000000000E+00 0. -1.
       -3    1    1    2    0  501  0.18919051464E+02 -0.17771046019E+03 -0.42651550605E+02  0.18373375558E+03  0.00000000000E+00 0.  1.
<mgrwt>
<rscale>  0 0.11243353E+03</rscale>
<asrwt>0</asrwt>
<pdfrwt beam="1">  1        2 0.15525436E+00 0.91996828E+02</pdfrwt>
<pdfrwt beam="2">  1       -4 0.35732209E-01 0.13741017E+03</pdfrwt>
<totfact> 0.10652713E+02</totfact>
</mgrwt>
</event>
<event>
10   0  0.7688500E-08  0.1752384E+03  0.7546771E-02  0.1246684E+00
        2   -1    0    0  502    0  0.00000000000E+00  0.00000000000E+00  0.25050183562E+04  0.25050183562E+04  0.00000000000E+00 0. -1.
        1   -1    0    0  501    0  0.00000000000E+00  0.00000000000E+00 -0.30669199032E+03  0.30669199032E+03  0.00000000000E+00 0. -1.
       23    2    1    2    0    0  0.21785828182E+03 -0.32040351561E+03  0.12742857611E+04  0.13347578874E+04  0.87485845385E+02 0.  0.
       23    2    1    2    0    0 -0.14823717437E+03  0.97277801841E+02  0.68807396839E+02  0.21140584757E+03  0.92307875771E+02 0.  0.
      -11    1    4    4    0    0  0.48130640432E+01 -0.95401901662E+01  0.12526293318E+02  0.16464775680E+02  0.00000000000E+00 0.  1.
       11    1    4    4    0    0 -0.15305023842E+03  0.10681799201E+03  0.56281103520E+02  0.19494107189E+03  0.00000000000E+00 0. -1.
      -13    1    3    3    0    0  0.32333988378E+02 -0.80794122057E+02  0.19111877179E+03  0.20999895689E+03  0.00000000000E+00 0.  1.
       13    1    3    3    0    0  0.18552429344E+03 -0.23960939355E+03  0.10831669893E+04  0.11247589305E+04  0.00000000000E+00 0. -1.
        2    1    1    2  501    0 -0.60038465509E+02  0.51741129460E+02 -0.19023257051E+03  0.20608297528E+03  0.00000000000E+00 0. -1.
        1    1    1    2  502    0 -0.95826419401E+01  0.17138458431E+03  0.10454657785E+04  0.10594636364E+04  0.00000000000E+00 0. -1.
<mgrwt>
<rscale>  0 0.11785147E+03</rscale>
<asrwt>0</asrwt>
<pdfrwt beam="1">  1        2 0.38538744E+00 0.17523841E+03</pdfrwt>
<pdfrwt beam="2">  1        1 0.47183383E-01 0.79257566E+02</pdfrwt>
<totfact> 0.49236521E+01</totfact>
</mgrwt>
</event>
<event>
10   0  0.7688500E-08  0.4185864E+02  0.7546771E-02  0.1511518E+00
        1   -1    0    0  502    0  0.00000000000E+00  0.00000000000E+00  0.76336896181E+03  0.76336896181E+03  0.00000000000E+00 0. -1.
        2   -1    0    0  501    0  0.00000000000E+00  0.00000000000E+00 -0.84506024477E+03  0.84506024477E+03  0.00000000000E+00 0. -1.
       23    2    1    2    0    0 -0.57099583785E+02 -0.60548185105E+02 -0.38176490399E+03  0.40126806933E+03  0.91351936820E+02 0.  0.
       23    2    1    2    0    0 -0.20068236351E+02  0.59523536793E+02 -0.16944794795E+03  0.20271911740E+03  0.91851227279E+02 0.  0.
      -11    1    3    3    0    0 -0.62828806688E+02 -0.79658169194E+01 -0.13811501344E+03  0.15194298314E+03  0.00000000000E+00 0.  1.
       11    1    3    3    0    0  0.57292229024E+01 -0.52582368185E+02 -0.24364989055E+03  0.24932508619E+03  0.00000000000E+00 0. -1.
      -13    1    4    4    0    0 -0.22431991784E+01 -0.17083462132E+02 -0.87317138981E+02  0.89000895394E+02  0.00000000000E+00 0.  1.
       13    1    4    4    0    0 -0.17825037172E+02  0.76606998926E+02 -0.82130808967E+02  0.11371822201E+03  0.00000000000E+00 0. -1.
        2    1    1    2  501    0  0.39809451355E+02  0.21950542950E+01 -0.26549688702E+03  0.26847384918E+03  0.00000000000E+00 0. -1.
        1    1    1    2  502    0  0.37358368781E+02 -0.11704059838E+01  0.73501845600E+03  0.73596817066E+03  0.00000000000E+00 0. -1.
<mgrwt>
<rscale>  0 0.39554239E+02</rscale>
<asrwt>0</asrwt>
<pdfrwt beam="1">  1        2 0.13000927E+00 0.41858642E+02</pdfrwt>
<pdfrwt beam="2">  1        1 0.11744138E+00 0.37376698E+02</pdfrwt>
<totfact> 0.13288742E+02</totfact>
</mgrwt>
</event>
<event>
10   0  0.7688500E-08  0.8012721E+02  0.7546771E-02  0.1441398E+00
       -3   -1    0    0    0  501  0.00000000000E+00  0.00000000000E+00  0.45761082300E+03  0.45761082300E+03  0.00000000000E+00 0.  1.
        3   -1    0    0  502    0  0.00000000000E+00  0.00000000000E+00 -0.15654292992E+04  0.15654292992E+04  0.00000000000E+00 0. -1.
       23    2    1    2    0    0 -0.23138017251E+02  0.39826084833E+02 -0.43102866477E+03  0.44288359117E+03  0.90767177982E+02 0.  0.
       23    2    1    2    0    0 -0.27119069043E+02 -0.38992358285E+02 -0.11111635534E+04  0.11155457597E+04  0.86614385385E+02 0.  0.
      -11    1    3    3    0    0 -0.48576777054E+02  0.44452947217E+02 -0.20343726972E+03  0.21382817985E+03  0.00000000000E+00 0. -1.
       11    1    3    3    0    0  0.25438759803E+02 -0.46268623842E+01 -0.22759139505E+03  0.22905541133E+03  0.00000000000E+00 0.  1.
      -13    1    4    4    0    0  0.19632984252E+02 -0.15271200381E+01 -0.71641115672E+02  0.74298288143E+02  0.00000000000E+00 0.  1.
       13    1    4    4    0    0 -0.46752053295E+02 -0.37465238247E+02 -0.10395224377E+04  0.10412474716E+04  0.00000000000E+00 0. -1.
        4    1    1    2  502    0 -0.28824398024E+02 -0.14192466208E+02  0.11386207596E+02  0.34086914527E+02  0.00000000000E+00 0. -1.
       -4    1    1    2    0  501  0.79081484318E+02  0.13358739660E+02  0.42298753433E+03  0.43052385681E+03  0.00000000000E+00 0.  1.
<mgrwt>
<rscale>  0 0.50738608E+02</rscale>
<asrwt>0</asrwt>
<pdfrwt beam="1">  1        3 0.24083528E+00 0.32128990E+02</pdfrwt>
<pdfrwt beam="2">  1       -3 0.70401665E-01 0.80127209E+02</pdfrwt>
<totfact> 0.48138951E-01</totfact>
</mgrwt>
</event>
<event>
10   0  0.7688500E-08  0.1685795E+03  0.7546771E-02  0.1409298E+00
        2   -1    0    0  502    0  0.00000000000E+00  0.00000000000E+00  0.14579409421E+04  0.14579409421E+04  0.00000000000E+00 0. -1.
       -2   -1    0    0    0  501  0.00000000000E+00  0.00000000000E+00 -0.17716620046E+04  0.17716620046E+04  0.00000000000E+00 0.  1.
       23    2    1    2    0    0 -0.14020843784E+03  0.11863246230E+03  0.20536239354E+03  0.29006451453E+03  0.90728401037E+02 0.  0.
       23    2    1    2    0    0 -0.19165260667E+02 -0.22342091465E+02 -0.16478684599E+04  0.16506950170E+04  0.91962502825E+02 0.  0.
      -11    1    4    4    0    0 -0.53963246560E+02 -0.15452046947E+02 -0.12460764379E+04  0.12473400847E+04  0.00000000000E+00 0.  1.
       11    1    4    4    0    0  0.34797985894E+02 -0.68900445178E+01 -0.40179202195E+03  0.40335493234E+03  0.00000000000E+00 0. -1.
      -13    1    3    3    0    0 -0.57791230280E+02  0.66318519977E+02  0.15963435870E+03  0.18226656541E+03  0.00000000000E+00 0.  1.
       13    1    3    3    0    0 -0.82417207560E+02  0.52313942323E+02  0.45728034841E+02  0.10779794912E+03  0.00000000000E+00 0. -1.
        1    1    1    2  502    0  0.14400781349E+03 -0.84267031909E+02  0.12017691074E+04  0.12132964067E+04  0.00000000000E+00 0. -1.
       -1    1    1    2    0  501  0.15365885016E+02 -0.12023338928E+02 -0.72984103602E+02  0.75547008411E+02  0.00000000000E+00 0.  1.
<mgrwt>
<rscale>  0 0.57350848E+02</rscale>
<asrwt>0</asrwt>
<pdfrwt beam="1">  1        2 0.22429861E+00 0.16857949E+03</pdfrwt>
<pdfrwt beam="2">  1       -2 0.27256339E+00 0.19510794E+02</pdfrwt>
<totfact> 0.10482216E+00</totfact>
</mgrwt>
</event>
<event>
10   0  0.7688500E-08  0.1733404E+03  0.7546771E-02  0.1175673E+00
       -2   -1    0    0    0  501  0.00000000000E+00  0.00000000000E+00  0.34304087649E+03  0.34304087649E+03  0.00000000000E+00 0.  1.
        2   -1    0    0  502    0  0.00000000000E+00  0.00000000000E+00 -0.10699135033E+04  0.10699135033E+04  0.00000000000E+00 0. -1.
       23    2    1    2    0    0  0.27501439246E+02  0.70725450309E+02  0.57031774525E+02  0.13132169383E+03  0.90743294422E+02 0.  0.
       23    2    1    2    0    0  0.12371106651E+03 -0.99236506003E+02 -0.52660733472E+02  0.19056263347E+03  0.91589586334E+02 0.  0.
      -11    1    3    3    0    0  0.33445135589E+02 -0.11814989590E+02  0.19136279911E+02  0.40303452487E+02  0.00000000000E+00 0. -1.
       11    1    3    3    0    0 -0.59436963429E+01  0.82540439898E+02  0.37895494614E+02  0.91018241342E+02  0.00000000000E+00 0.  1.
      -13    1    4    4    0    0 -0.10567756188E+02 -0.64801748888E+01  0.98155645196E+01  0.15811876684E+02  0.00000000000E+00 0.  1.
       13    1    4    4    0    0  0.13427882269E+03 -0.92756331115E+02 -0.62476297992E+02  0.17475075678E+03  0.00000000000E+00 0. -1.
        1    1    1    2  502    0  0.12139158962E+03 -0.12547421808E+03 -0.75704992046E+03  0.77691973813E+03  0.00000000000E+00 0. -1.
       -1    1    1    2    0  501 -0.27260409537E+03  0.15398527377E+03  0.25806252574E+02  0.31415031438E+03  0.00000000000E+00 0.  1.
<mgrwt>
<rscale>  0 0.17210265E+03</rscale>
<asrwt>0</asrwt>
<pdfrwt beam="1">  1        2 0.16460208E+00 0.17334038E+03</pdfrwt>
<pdfrwt beam="2">  1       -2 0.52775519E-01 0.17087376E+03</pdfrwt>
<totfact> 0.85325016E+01</totfact>
</mgrwt>
</event>
<event>
11   0  0.7688500E-08  0.1258194E+03  0.7546771E-02  0.1248793E+00
       -1   -1    0    0    0  501  0.00000000000E+00  0.00000000000E+00  0.24403776162E+03  0.24403776162E+03  0.00000000000E+00 0.  1.
        1   -1    0    0  501    0  0.00000000000E+00  0.00000000000E+00 -0.19180266259E+04  0.19180266259E+04  0.00000000000E+00 0. -1.
       23    2    1    2    0    0 -0.12429393078E+02 -0.53322546654E+01  0.22654899809E+03  0.24483410259E+03  0.91849695169E+02 0.  0.
       23    2    1    2    0    0  0.81963335211E+02 -0.36647574556E+02 -0.92333655900E+03  0.93228397614E+03  0.92422821558E+02 0.  0.
       23    2    1    2    0    0 -0.69533942133E+02  0.41979829221E+02 -0.97720130338E+03  0.98494630879E+03  0.92733859508E+02 0.  0.
      -11    1    3    3    0    0  0.16696793733E+01 -0.47052765940E+02  0.14035712124E+03  0.14804348042E+03  0.00000000000E+00 0. -1.
       11    1    3    3    0    0 -0.14099072451E+02  0.41720511275E+02  0.86191876854E+02  0.96790622173E+02  0.00000000000E+00 0.  1.
      -13    1    4    4    0    0  0.44163184942E+02  0.21431761536E+02 -0.57690066486E+03  0.57898539223E+03  0.00000000000E+00 0.  1.
       13    1    4    4    0    0  0.37800150269E+02 -0.58079336091E+02 -0.34643589414E+03  0.35329858391E+03  0.00000000000E+00 0. -1.
        1    1    5    5  502    0 -0.55493717075E+02 -0.10203944552E+02 -0.71564233254E+03  0.71786323296E+03  0.00000000000E+00 0. -1.
       -1    1    5    5    0  502 -0.14040225058E+02  0.52183773773E+02 -0.26155897084E+03  0.26708307583E+03  0.00000000000E+00 0.  1.
<mgrwt>
<rscale>  0 0.11661234E+03</rscale>
<asrwt>0</asrwt>
<pdfrwt beam="1">  1        1 0.29508102E+00 0.12581935E+03</pdfrwt>
<pdfrwt beam="2">  1       -1 0.37544271E-01 0.12581935E+03</pdfrwt>
<totfact> 0.29002705E+01</totfact>
</mgrwt>
</event>
<event>
10   0  0.7688500E-08  0.6139822E+02  0.7546771E-02  0.1432227E+00
        2   -1    0    0  502    0  0.00000000000E+00  0.00000000000E+00  0.21766213139E+04  0.21766213139E+04  0.00000000000E+00 0. -1.
       -2   -1    0    0    0  501  0.00000000000E+00  0.00000000000E+00 -0.18675578974E+02  0.18675578974E+02  0.00000000000E+00 0.  1.
       23    2    1    2    0    0  0.84838338368E+01 -0.49301655172E+02  0.55572804855E+03  0.56571879459E+03  0.93281627166E+02 0.  0.
       23    2    1    2    0    0 -0.23672614330E+02  0.25264867609E+02  0.40327332268E+03  0.41484031495E+03  0.90908789013E+02 0.  0.
      -11    1    3    3    0    0 -0.34351095156E+02  0.54407772009E+01  0.14232448130E+03  0.14651231269E+03  0.00000000000E+00 0.  1.
       11    1    3    3    0    0  0.42834928992E+02 -0.54742432373E+02  0.41340356725E+03  0.41920648189E+03  0.00000000000E+00 0. -1.
      -13    1    4    4    0    0  0.12543133000E+02 -0.27253625051E+02  0.82523025213E+02  0.87807402616E+02  0.00000000000E+00 0. -1.
       13    1    4    4    0    0 -0.36215747330E+02  0.52518492660E+02  0.32075029746E+03  0.32703291233E+03  0.00000000000E+00 0.  1.
        1    1    1    2  502    0  0.12809207677E+02 -0.43052773822E+02  0.10544920148E+04  0.10554482585E+04  0.00000000000E+00 0. -1.
       -1    1    1    2    0  501  0.23795728162E+01  0.67089561385E+02  0.14445234890E+03  0.15928952482E+03  0.00000000000E+00 0.  1.
<mgrwt>
<rscale>  0 0.52515509E+02</rscale>
<asrwt>0</asrwt>
<pdfrwt beam="1">  1        2 0.33486482E+00 0.44917893E+02</pdfrwt>
<pdfrwt beam="2">  1       -2 0.28731660E-02 0.61398220E+02</pdfrwt>
<totfact> 0.28340081E+03</totfact>
</mgrwt>
</event>
<event>
11   0  0.7688500E-08  0.1298591E+03  0.7546771E-02  0.1242979E+00
       -1   -1    0    0    0  501  0.00000000000E+00  0.00000000000E+00  0.72917282670E+02  0.72917282670E+02  0.00000000000E+00 0.  1.
        2   -1    0    0  501    0  0.00000000000E+00  0.00000000000E+00 -0.17223074846E+04  0.17223074846E+04  0.00000000000E+00 0. -1.
       23    2    1    2    0    0  0.94903923467E+02  0.37578845426E+01  0.13490577705E+01  0.13150323127E+03  0.90941758792E+02 0.  0.
       24    2    1    2    0    0 -0.68161356299E+02 -0.14252562027E+02 -0.67983135257E+03  0.68818499878E+03  0.81109916687E+02 0.  0.
       23    2    1    2    0    0 -0.26742567168E+02  0.10494677484E+02 -0.97090790715E+03  0.97553653724E+03  0.90465839828E+02 0.  0.
      -11    1    3    3    0    0  0.30364420704E+02 -0.34555611815E+02 -0.24503877447E+02  0.52120325810E+02  0.00000000000E+00 0.  1.
       11    1    3    3    0    0  0.64539502763E+02  0.38313496358E+02  0.25852935218E+02  0.79382905461E+02  0.00000000000E+00 0. -1.
      -13    1    5    5    0    0 -0.58617517459E+02 -0.15675852726E+01 -0.70895850877E+03  0.71137939093E+03  0.00000000000E+00 0. -1.
       13    1    5    5    0    0  0.31874950291E+02  0.12062262757E+02 -0.26194939837E+03  0.26415714631E+03  0.00000000000E+00 0.  1.
        2    1    4    4  502    0 -0.83415489505E+02  0.28779784246E+01 -0.55883653920E+03  0.56503513536E+03  0.00000000000E+00 0. -1.
       -1    1    4    4    0  502  0.15254133206E+02 -0.17130540452E+02 -0.12099481337E+03  0.12314986342E+03  0.00000000000E+00 0.  1.
<mgrwt>
<rscale>  0 0.12007182E+03</rscale>
<asrwt>0</asrwt>
<pdfrwt beam="1">  1        2 0.26497038E+00 0.12985910E+03</pdfrwt>
<pdfrwt beam="2">  1       -1 0.11218043E-01 0.12985910E+03</pdfrwt>
<totfact> 0.62114720E+02</totfact>
</mgrwt>
</event>
<event>
10   0  0.7688500E-08  0.1048887E+03  0.7546771E-02  0.1284278E+00
       -1   -1    0    0    0  501  0.00000000000E+00  0.00000000000E+00  0.15342201087E+04  0.15342201087E+04  0.00000000000E+00 0.  1.
        1   -1    0    0  502    0  0.00000000000E+00  0.00000000000E+00 -0.25502738913E+03  0.25502738913E+03  0.00000000000E+00 0. -1.
       23    2    1    2    0    0 -0.17297710602E+01  0.51780223660E+02 -0.64507419921E+02  0.12276314623E+03  0.90693986451E+02 0.  0.
       23    2    1    2    0    0 -0.86950715899E+02 -0.46502117130E+02  0.28953164458E+02  0.13722247893E+03  0.90933212301E+02 0.  0.
      -11    1    4    4    0    0 -0.13888281928E+02  0.22157569349E+02  0.26062006852E+02  0.36919784066E+02  0.00000000000E+00 0. -1.
       11    1    4    4    0    0 -0.73062433972E+02 -0.68659686479E+02  0.28911576062E+01  0.10030269487E+03  0.00000000000E+00 0.  1.
      -13    1    3    3    0    0 -0.94181189397E+01  0.70878306255E+02 -0.20824842881E+02  0.74472205171E+02  0.00000000000E+00 0. -1.
       13    1    3    3    0    0  0.76883478795E+01 -0.19098082595E+02 -0.43682577040E+02  0.48290941064E+02  0.00000000000E+00 0.  1.
        2    1    1    2  502    0  0.24083063097E+02 -0.88591608783E+02 -0.85260389518E+02  0.12529086597E+03  0.00000000000E+00 0. -1.
       -2    1    1    2    0  501  0.64597423862E+02  0.83313502253E+02  0.14000073645E+04  0.14039710067E+04  0.00000000000E+00 0.  1.
<mgrwt>
<rscale>  0 0.98129955E+02</rscale>
<asrwt>0</asrwt>
<pdfrwt beam="1">  1        1 0.39234983E-01 0.91806683E+02</pdfrwt>
<pdfrwt beam="2">  1       -1 0.23603386E+00 0.10488875E+03</pdfrwt>
<totfact> 0.11555889E+01</totfact>
</mgrwt>
</event>
<event>
10   0  0.7688500E-08  0.6334435E+02  0.7546771E-02  0.1388307E+00
        1   -1    0    0  501    0  0.00000000000E+00  0.00000000000E+00  0.35928366696E+03  0.35928366696E+03  0.00000000000E+00 0. -1.
        2   -1    0    0  502    0  0.00000000000E+00  0.00000000000E+00 -0.34137605190E+04  0.34137605190E+04  0.00000000000E+00 0. -1.
       23    2    1    2    0    0 -0.31400790898E+01 -0.74874155199E+02 -0.94481522133E+03  0.95221086898E+03  0.91726426540E+02 0.  0.
       23    2    1    2    0    0  0.28156806531E+02  0.20227524324E+02  0.13931194624E+03  0.17129955769E+03  0.93454596492E+02 0.  0.
      -11    1    3    3    0    0  0.18053792039E+02  0.12383356186E+02 -0.87143608043E+02  0.89851518296E+02  0.00000000000E+00 0.  1.
       11    1    3    3    0    0 -0.21193871128E+02 -0.87257511385E+02 -0.85767161329E+03  0.86235935068E+03  0.00000000000E+00 0. -1.
      -13    1    4    4    0    0  0.15713604545E+02 -0.35313812886E+02  0.33494734373E+02  0.51145674099E+02  0.00000000000E+00 0.  1.
       13    1    4    4    0    0  0.12443201986E+02  0.55541337210E+02  0.10581721187E+03  0.12015388359E+03  0.00000000000E+00 0. -1.
        2    1    1    2  501    0  0.36263809559E+02  0.52145104624E+02  0.19484998902E+03  0.20494070860E+03  0.00000000000E+00 0. -1.
        1    1    1    2  502    0 -0.61280537000E+02  0.25015262505E+01 -0.24438235660E+04  0.24445930507E+04  0.00000000000E+00 0. -1.
<mgrwt>
<rscale>  0 0.62329838E+02</rscale>
<asrwt>0</asrwt>
<pdfrwt beam="1">  1        2 0.52519393E+00 0.61331573E+02</pdfrwt>
<pdfrwt beam="2">  1        1 0.55274410E-01 0.63344351E+02</pdfrwt>
<totfact> 0.14547842E+01</totfact>
</mgrwt>
</event>
<event>
10   0  0.7688500E-08  0.1245696E+03  0.7546771E-02  0.1412449E+00
        1   -1    0    0  501    0  0.00000000000E+00  0.00000000000E+00  0.95680292059E+03  0.95680292059E+03  0.00000000000E+00 0. -1.
        4   -1    0    0  502    0  0.00000000000E+00  0.00000000000E+00 -0.13425872685E+03  0.13425872685E+03  0.00000000000E+00 0. -1.
       23    2    1    2    0    0 -0.77839615676E+02 -0.39885283945E+02  0.46074578806E+03  0.47764856107E+03  0.90618017140E+02 0.  0.
       23    2    1    2    0    0 -0.37122314940E+02  0.25410658341E+02  0.38757704208E+03  0.40134176046E+03  0.93997219744E+02 0.  0.
      -11    1    4    4    0    0 -0.68628776598E+02  0.21992034065E+02  0.25137395989E+03  0.26150033700E+03  0.00000000000E+00 0. -1.
       11    1    4    4    0    0  0.31506461659E+02  0.34186242760E+01  0.13620308219E+03  0.13984142346E+03  0.00000000000E+00 0.  1.
      -13    1    3    3    0    0 -0.28281401931E+02  0.28662519027E+02  0.17935004300E+03  0.18381462297E+03  0.00000000000E+00 0.  1.
       13    1    3    3    0    0 -0.49558213745E+02 -0.68547802972E+02  0.28139574506E+03  0.29383393810E+03  0.00000000000E+00 0. -1.
        2    1    1    2  501    0  0.13861496851E+03  0.42629170381E+01  0.37574016570E+02  0.14368050904E+03  0.00000000000E+00 0. -1.
        3    1    1    2  502    0 -0.23653037891E+02  0.10211708566E+02 -0.63352652977E+02  0.68390816872E+02  0.00000000000E+00 0. -1.
<mgrwt>
<rscale>  0 0.56650841E+02</rscale>
<asrwt>0</asrwt>
<pdfrwt beam="1">  1        4 0.20655189E-01 0.25763253E+02</pdfrwt>
<pdfrwt beam="2">  1        1 0.14720045E+00 0.12456959E+03</pdfrwt>
<totfact> 0.13467201E+02</totfact>
</mgrwt>
</event>
<event>
10   0  0.7688500E-08  0.1553074E+03  0.7546771E-02  0.1266597E+00
       -4   -1    0    0    0  501  0.00000000000E+00  0.00000000000E+00  0.64801924700E+02  0.64801924700E+02  0.00000000000E+00 0.  1.
        2   -1    0    0  502    0  0.00000000000E+00  0.00000000000E+00 -0.28818039197E+04  0.28818039197E+04  0.00000000000E+00 0. -1.
       23    2    1    2    0    0  0.11105703904E+03  0.11485632870E+03 -0.60028223402E+03  0.62776878308E+03  0.90715171606E+02 0.  0.
       23    2    1    2    0    0 -0.19759793314E+03 -0.17491839190E+03 -0.62997756907E+03  0.68907322870E+03  0.91152564270E+02 0.  0.
      -11    1    4    4    0    0 -0.81581369120E+02 -0.11768387656E+03 -0.25565427916E+03  0.29302580952E+03  0.00000000000E+00 0.  1.
       11    1    4    4    0    0 -0.11601656402E+03 -0.57234515338E+02 -0.37432328990E+03  0.39604741918E+03  0.00000000000E+00 0. -1.
      -13    1    3    3    0    0 -0.19276472454E+01  0.26602538519E+02 -0.31887786919E+02  0.41572128093E+02  0.00000000000E+00 0. -1.
       13    1    3    3    0    0  0.11298468629E+03  0.88253790184E+02 -0.56839444710E+03  0.58619665498E+03  0.00000000000E+00 0.  1.
        1    1    1    2  502    0  0.15642777737E+03  0.37447355331E+02 -0.15259826495E+04  0.15344363787E+04  0.00000000000E+00 0. -1.
       -3    1    1    2    0  501 -0.69886883277E+02  0.22614707862E+02 -0.60759542453E+02  0.95327453889E+02  0.00000000000E+00 0.  1.
<mgrwt>
<rscale>  0 0.10680856E+03</rscale>
<asrwt>0</asrwt>
<pdfrwt beam="1">  1        2 0.44335445E+00 0.15530743E+03</pdfrwt>
<pdfrwt beam="2">  1       -4 0.99695269E-02 0.73454758E+02</pdfrwt>
<totfact> 0.93447446E+01</totfact>
</mgrwt>
</event>
<event>
10   0  0.7688500E-08  0.1833430E+03  0.7546771E-02  0.1181511E+00
        2   -1    0    0  502    0  0.00000000000E+00  0.00000000000E+00  0.17743882087E+04  0.17743882087E+04  0.00000000000E+00 0. -1.
        1   -1    0    0  501    0  0.00000000000E+00  0.00000000000E+00 -0.83727911376E+03  0.83727911376E+03  0.00000000000E+00 0. -1.
       23    2    1    2    0    0 -0.35778126660E+02  0.76720596861E+02  0.17927590740E+03  0.21843847824E+03  0.91702745177E+02 0.  0.
       23    2    1    2    0    0  0.31648128611E+02 -0.12365512582E+03  0.38794598427E+03  0.41820653451E+03  0.90013469057E+02 0.  0.
      -11    1    3    3    0    0 -0.50516127858E+02  0.78384383779E+02  0.95938561060E+02  0.13379162265E+03  0.00000000000E+00 0. -1.
       11    1    3    3    0    0  0.14738001198E+02 -0.16637869177E+01  0.83337346337E+02  0.84646855587E+02  0.00000000000E+00 0.  1.
      -13    1    4    4    0    0  0.34425716922E+02 -0.24631700002E+01  0.99792838621E+02  0.10559265046E+03  0.00000000000E+00 0. -1.
       13    1    4    4    0    0 -0.27775883107E+01 -0.12119195582E+03  0.28815314565E+03  0.31261388405E+03  0.00000000000E+00 0.  1.
        2    1    1    2  501    0  0.97689766646E+02 -0.15474972043E+03 -0.78135931045E+03  0.80250429189E+03  0.00000000000E+00 0. -1.
        1    1    1    2  502    0 -0.93559768597E+02  0.20168424939E+03  0.11512465137E+04  0.11725180178E+04  0.00000000000E+00 0. -1.
<mgrwt>
<rscale>  0 0.16653426E+03</rscale>
<asrwt>0</asrwt>
<pdfrwt beam="1">  1        2 0.27298280E+00 0.15126652E+03</pdfrwt>
<pdfrwt beam="2">  1        1 0.12881217E+00 0.18334301E+03</pdfrwt>
<totfact> 0.31034212E+01</totfact>
</mgrwt>
</event>
<event>
10   0  0.7688500E-08  0.5579641E+03  0.7546771E-02  0.1044423E+00
       -4   -1    0    0    0  501  0.00000000000E+00  0.00000000000E+00  0.26799925857E+03  0.26799925857E+03  0.00000000000E+00 0.  1.
        3   -1    0    0  501    0  0.00000000000E+00  0.00000000000E+00 -0.46110439328E+03  0.46110439328E+03  0.00000000000E+00 0. -1.
       23    2    1    2    0    0 -0.13076880932E+03 -0.44103543619E+02 -0.29404329007E+03  0.33714484628E+03  0.90330431693E+02 0.  0.
       23    2    1    2    0    0  0.11083321020E+03  0.21922977056E+02 -0.29393634842E+02  0.14761817453E+03  0.90346678268E+02 0.  0.
      -11    1    4    4    0    0  0.11253139752E+03  0.22094873650E+02 -0.51310140935E+02  0.12563530329E+03  0.00000000000E+00 0.  1.
       11    1    4    4    0    0 -0.16981873145E+01 -0.17189659435E+00  0.21916506093E+02  0.21982871239E+02  0.00000000000E+00 0. -1.
      -13    1    3    3    0    0  0.85259321100E+01 -0.21357112712E+02 -0.30624213064E+02  0.38296999980E+02  0.00000000000E+00 0.  1.
       13    1    3    3    0    0 -0.13929474143E+03 -0.22746430907E+02 -0.26341907700E+03  0.29884784630E+03  0.00000000000E+00 0. -1.
        1    1    1    2  502    0 -0.67539371711E+02  0.15803536919E+02 -0.18320862076E+02  0.71742403762E+02  0.00000000000E+00 0. -1.
       -2    1    1    2    0  502  0.87474970831E+02  0.63770296440E+01  0.14865265228E+03  0.17259822728E+03  0.00000000000E+00 0.  1.
<mgrwt>
<rscale>  0 0.39814697E+03</rscale>
<asrwt>0</asrwt>
<pdfrwt beam="1">  1        3 0.70939137E-01 0.55796407E+03</pdfrwt>
<pdfrwt beam="2">  1       -4 0.41230655E-01 0.55796407E+03</pdfrwt>
<totfact> 0.24639599E+01</totfact>
</mgrwt>
</event>
<event>
11   0  0.7688500E-08  0.1338448E+03  0.7546771E-02  0.1235412E+00
       -2   -1    0    0    0  501  0.00000000000E+00  0.00000000000E+00  0.18145219106E+04  0.18145219106E+04  0.00000000000E+00 0.  1.
        1   -1    0    0  501    0  0.00000000000E+00  0.00000000000E+00 -0.24603169522E+03  0.24603169522E+03  0.00000000000E+00 0. -1.
       23    2    1    2    0    0  0.95607096157E+02 -0.11221951586E+02  0.66501389476E+03  0.67840839995E+03  0.93422844448E+02 0.  0.
      -24    2    1    2    0    0 -0.10253032897E+03  0.21883143175E+02  0.11287382074E+04  0.11364703324E+04  0.80768405198E+02 0.  0.
       23    2    1    2    0    0  0.69232328141E+01 -0.10661191589E+02 -0.22526188672E+03  0.24567487352E+03  0.97219513018E+02 0.  0.
      -11    1    3    3    0    0 -0.10978512173E+02 -0.91128623078E+01  0.19565325095E+02  0.24215159199E+02  0.00000000000E+00 0. -1.
       11    1    3    3    0    0  0.10658560833E+03 -0.21090892783E+01  0.64544856966E+03  0.65419324075E+03  0.00000000000E+00 0.  1.
      -13    1    5    5    0    0  0.47668876212E+02 -0.66808716128E+01 -0.68942672054E+02  0.84083576486E+02  0.00000000000E+00 0.  1.
       13    1    5    5    0    0 -0.40745643397E+02 -0.39803199759E+01 -0.15631921467E+03  0.16159129704E+03  0.00000000000E+00 0. -1.
        3    1    4    4  502    0 -0.68884225968E+02  0.47172514822E+02  0.90223293160E+03  0.90608749335E+03  0.00000000000E+00 0. -1.
       -4    1    4    4    0  502 -0.33646103003E+02 -0.25289371648E+02  0.22650527575E+03  0.23038283901E+03  0.00000000000E+00 0.  1.
<mgrwt>
<rscale>  0 0.12478075E+03</rscale>
<asrwt>0</asrwt>
<pdfrwt beam="1">  1        1 0.37851030E-01 0.13384482E+03</pdfrwt>
<pdfrwt beam="2">  1       -2 0.27915722E+00 0.13384482E+03</pdfrwt>
<totfact> 0.51720190E+00</totfact>
</mgrwt>
</event>
<event>
10   0  0.7688500E-08  0.9378621E+02  0.7546771E-02  0.1299418E+00
       -2   -1    0    0    0  501  0.00000000000E+00  0.00000000000E+00  0.18380244966E+03  0.18380244966E+03  0.00000000000E+00 0.  1.
        2   -1    0    0  502    0  0.00000000000E+00  0.00000000000E+00 -0.69003493082E+03  0.69003493082E+03  0.00000000000E+00 0. -1.
       23    2    1    2    0    0 -0.42534170015E+02 -0.10092084428E+03 -0.85266961320E+02  0.16670139593E+03  0.92329455110E+02 0.  0.
       23    2    1    2    0    0 -0.29818033971E+01  0.35651903911E+02 -0.27239654523E+03  0.28923991521E+03  0.90442806755E+02 0.  0.
      -11    1    4    4    0    0 -0.26866391573E+02  0.53417878913E+02 -0.22855910783E+03  0.23625100752E+03  0.00000000000E+00 0.  1.
       11    1    4    4    0    0  0.23884588176E+02 -0.17765975002E+02 -0.43837437403E+02  0.52988907690E+02  0.00000000000E+00 0. -1.
      -13    1    3    3    0    0 -0.28932070923E+02 -0.10255712051E+03 -0.10031618189E+03  0.14635014193E+03  0.00000000000E+00 0.  1.
       13    1    3    3    0    0 -0.13602099092E+02  0.16362762232E+01  0.15049220566E+02  0.20351253996E+02  0.00000000000E+00 0. -1.
        1    1    1    2  502    0 -0.45794877701E+02  0.86674125644E+02 -0.25668722283E+03  0.27476882145E+03  0.00000000000E+00 0. -1.
       -1    1    1    2    0  501  0.91310851112E+02 -0.21405185270E+02  0.10811824823E+03  0.14312724788E+03  0.00000000000E+00 0.  1.
<mgrwt>
<rscale>  0 0.91433163E+02</rscale>
<asrwt>0</asrwt>
<pdfrwt beam="1">  1        2 0.10615922E+00 0.89139151E+02</pdfrwt>
<pdfrwt beam="2">  1       -2 0.28277300E-01 0.93786212E+02</pdfrwt>
<totfact> 0.49510589E+02</totfact>
</mgrwt>
</event>
<event>
10   0  0.7688500E-08  0.2361142E+03  0.7546771E-02  0.1149817E+00
        1   -1    0    0  501    0  0.00000000000E+00  0.00000000000E+00  0.22455477803E+04  0.22455477803E+04  0.00000000000E+00 0. -1.
        4   -1    0    0  502    0  0.00000000000E+00  0.00000000000E+00 -0.40353075126E+03  0.40353075126E+03  0.00000000000E+00 0. -1.
       23    2    1    2    0    0  0.78035268211E+02  0.26166272957E+02  0.49110064796E+03  0.50586489128E+03  0.89136215327E+02 0.  0.
       23    2    1    2    0    0 -0.84683766970E+02 -0.30798622828E+02  0.30197565210E+03  0.32758373921E+03  0.89453430206E+02 0.  0.
      -11    1    3    3    0    0  0.15173562595E+02  0.51342913824E+02  0.22537737298E+03  0.23164907091E+03  0.00000000000E+00 0. -1.
       11    1    3    3    0    0  0.62861705616E+02 -0.25176640867E+02  0.26572327497E+03  0.27421582037E+03  0.00000000000E+00 0.  1.
      -13    1    4    4    0    0  0.17025121930E+02 -0.17307963249E+02  0.62881357381E+02  0.67405381644E+02  0.00000000000E+00 0.  1.
       13    1    4    4    0    0 -0.10170888890E+03 -0.13490659579E+02  0.23909429472E+03  0.26017835757E+03  0.00000000000E+00 0. -1.
        2    1    1    2  501    0 -0.20214719790E+03 -0.10606241671E+03  0.13856141111E+04  0.14042931284E+04  0.00000000000E+00 0. -1.
        3    1    1    2  502    0  0.20879569666E+03  0.11069476658E+03 -0.33667338208E+03  0.41133677261E+03  0.00000000000E+00 0. -1.
<mgrwt>
<rscale>  0 0.19990701E+03</rscale>
<asrwt>0</asrwt>
<pdfrwt beam="1">  1        4 0.62081654E-01 0.23611422E+03</pdfrwt>
<pdfrwt beam="2">  1        1 0.34546889E+00 0.16925204E+03</pdfrwt>
<totfact> 0.28543574E+00</totfact>
</mgrwt>
</event>
<event>
10   0  0.7688500E-08  0.7531264E+03  0.7546771E-02  0.1042674E+00
        2   -1    0    0  502    0  0.00000000000E+00  0.00000000000E+00  0.23357135848E+04  0.23357135848E+04  0.00000000000E+00 0. -1.
       -4   -1    0    0    0  501  0.00000000000E+00  0.00000000000E+00 -0.13835787685E+04  0.13835787685E+04  0.00000000000E+00 0.  1.
       23    2    1    2    0    0 -0.51035832355E+02  0.14009763151E+03  0.26475817079E+03  0.32090115707E+03  0.10319234985E+03 0.  0.
       23    2    1    2    0    0  0.36907276994E+03 -0.76338555518E+03 -0.43955313809E+03  0.95949291061E+03  0.91910113352E+02 0.  0.
      -11    1    4    4    0    0  0.19830458166E+03 -0.40113540368E+03 -0.18038516841E+03  0.48246567565E+03  0.00000000000E+00 0.  1.
       11    1    4    4    0    0  0.17076818828E+03 -0.36225015150E+03 -0.25916796968E+03  0.47702723496E+03  0.00000000000E+00 0. -1.
      -13    1    3    3    0    0 -0.76205689168E+02  0.12485346566E+03  0.18469270598E+03  0.23559942825E+03  0.00000000000E+00 0.  1.
       13    1    3    3    0    0  0.25169856812E+02  0.15244165856E+02  0.80065464805E+02  0.85301728817E+02  0.00000000000E+00 0. -1.
        1    1    1    2  502    0  0.16396002916E+03  0.11568188947E+03  0.15880490383E+04  0.16006764004E+04  0.00000000000E+00 0. -1.
       -3    1    1    2    0  501 -0.48199696674E+03  0.50760603420E+03 -0.46111925465E+03  0.83822188525E+03  0.00000000000E+00 0.  1.
<mgrwt>
<rscale>  0 0.40320819E+03</rscale>
<asrwt>0</asrwt>
<pdfrwt beam="1">  1        2 0.35934055E+00 0.21586927E+03</pdfrwt>
<pdfrwt beam="2">  1       -4 0.21285827E+00 0.75312641E+03</pdfrwt>
<totfact> 0.30480927E-01</totfact>
</mgrwt>
</event>
<event>
10   0  0.7688500E-08  0.4689222E+02  0.7546771E-02  0.1484713E+00
        2   -1    0    0  502    0  0.00000000000E+00  0.00000000000E+00  0.29913409475E+04  0.29913409475E+04  0.00000000000E+00 0. -1.
        3   -1    0    0  501    0  0.00000000000E+00  0.00000000000E+00 -0.30410005438E+02  0.30410005438E+02  0.00000000000E+00 0. -1.
       23    2    1    2    0    0 -0.14774666162E+02 -0.44136033519E+02  0.42279512572E+03  0.43530264911E+03  0.92554836599E+02 0.  0.
       23    2    1    2    0    0  0.91907232192E+01  0.12859981143E+03  0.41881896671E+03  0.44733494235E+03  0.89871257259E+02 0.  0.
      -11    1    3    3    0    0  0.11045300387E+02 -0.57481517220E+02  0.37364384338E+03  0.37820080008E+03  0.00000000000E+00 0.  1.
       11    1    3    3    0    0 -0.25819966549E+02  0.13345483701E+02  0.49151282338E+02  0.57101849035E+02  0.00000000000E+00 0. -1.
      -13    1    4    4    0    0  0.88572152900E+01 -0.86291115587E+01  0.94094533584E+01  0.15538649925E+02  0.00000000000E+00 0.  1.
       13    1    4    4    0    0  0.33350792913E+00  0.13722892299E+03  0.40940951335E+03  0.43179629243E+03  0.00000000000E+00 0. -1.
        4    1    1    2  501    0  0.53069985551E+01 -0.44332966443E+02  0.41652631509E+02  0.61061590701E+02  0.00000000000E+00 0. -1.
        1    1    1    2  502    0  0.27694438758E+00 -0.40130811470E+02  0.20776642181E+04  0.20780517707E+04  0.00000000000E+00 0. -1.
<mgrwt>
<rscale>  0 0.43380499E+02</rscale>
<asrwt>0</asrwt>
<pdfrwt beam="1">  1        2 0.46020630E+00 0.40131767E+02</pdfrwt>
<pdfrwt beam="2">  1        3 0.46784624E-02 0.46892221E+02</pdfrwt>
<totfact> 0.36192433E+02</totfact>
</mgrwt>
</event>
<event>
10   0  0.7688500E-08  0.1278079E+03  0.7546771E-02  0.1287158E+00
       -3   -1    0    0    0  501  0.00000000000E+00  0.00000000000E+00  0.93754844478E+03  0.93754844478E+03  0.00000000000E+00 0.  1.
        1   -1    0    0  502    0  0.00000000000E+00  0.00000000000E+00 -0.52265284787E+03  0.52265284787E+03  0.00000000000E+00 0. -1.
       23    2    1    2    0    0  0.39716500606E+01 -0.14668473776E+03  0.12185617956E+03  0.21092117282E+03  0.90036805535E+02 0.  0.
       23    2    1    2    0    0 -0.19324384325E+02  0.11073332283E+02 -0.12729014625E+03  0.15873862480E+03  0.92190667390E+02 0.  0.
      -11    1    3    3    0    0  0.11738094946E+02 -0.12149171022E+03  0.13454791829E+03  0.18166221633E+03  0.00000000000E+00 0. -1.
       11    1    3    3    0    0 -0.77664448851E+01 -0.25193027542E+02 -0.12691738734E+02  0.29258956491E+02  0.00000000000E+00 0.  1.
      -13    1    4    4    0    0 -0.89834213539E+00  0.26323043512E+02 -0.13179417224E+03  0.13440019894E+03  0.00000000000E+00 0. -1.
       13    1    4    4    0    0 -0.18426042190E+02 -0.15249711229E+02  0.45040259895E+01  0.24338425862E+02  0.00000000000E+00 0.  1.
        2    1    1    2  502    0 -0.54138863543E+02  0.15901073245E+03 -0.31211011645E+03  0.35444062178E+03  0.00000000000E+00 0. -1.
       -4    1    1    2    0  501  0.69491597808E+02 -0.23399326967E+02  0.73243968006E+03  0.73610087325E+03  0.00000000000E+00 0.  1.
<mgrwt>
<rscale>  0 0.96806821E+02</rscale>
<asrwt>0</asrwt>
<pdfrwt beam="1">  1        1 0.80408130E-01 0.12780788E+03</pdfrwt>
<pdfrwt beam="2">  1       -3 0.14423822E+00 0.73325375E+02</pdfrwt>
<totfact> 0.89676950E+00</totfact>
</mgrwt>
</event>
<event>
10   0  0.7688500E-08  0.1090801E+03  0.7546771E-02  0.1315561E+00
        1   -1    0    0  501    0  0.00000000000E+00  0.00000000000E+00  0.15283158671E+03  0.15283158671E+03  0.00000000000E+00 0. -1.
        2   -1    0    0  502    0  0.00000000000E+00  0.00000000000E+00 -0.18133646703E+04  0.18133646703E+04  0.00000000000E+00 0. -1.
       23    2    1    2    0    0 -0.94209087387E+02  0.10215020862E+03 -0.10764567932E+04  0.10891078905E+04  0.89926371579E+02 0.  0.
       23    2    1    2    0    0 -0.24539526618E+02  0.33272056155E+02 -0.12344352781E+03  0.15837882938E+03  0.90201612783E+02 0.  0.
      -11    1    3    3    0    0 -0.75274917453E+02  0.18853187514E+02 -0.41903527118E+03  0.42615996336E+03  0.00000000000E+00 0.  1.
       11    1    3    3    0    0 -0.18934169934E+02  0.83297021105E+02 -0.65742152204E+03  0.66294792718E+03  0.00000000000E+00 0. -1.
      -13    1    4    4    0    0  0.47092559387E+01  0.54935521302E+02 -0.10249187134E+03  0.11638158051E+03  0.00000000000E+00 0. -1.
       13    1    4    4    0    0 -0.29248782557E+02 -0.21663465148E+02 -0.20951656478E+02  0.41997248867E+02  0.00000000000E+00 0.  1.
        2    1    1    2  501    0  0.53722271505E+02 -0.14761434754E+03  0.78447291056E+02  0.17558489550E+03  0.00000000000E+00 0. -1.
        1    1    1    2  502    0  0.65026342501E+02  0.12192082764E+02 -0.53908005364E+03  0.54312464162E+03  0.00000000000E+00 0. -1.
<mgrwt>
<rscale>  0 0.84951030E+02</rscale>
<asrwt>0</asrwt>
<pdfrwt beam="1">  1        2 0.27897918E+00 0.66159445E+02</pdfrwt>
<pdfrwt beam="2">  1        1 0.23512552E-01 0.10908008E+03</pdfrwt>
<totfact> 0.29454481E+02</totfact>
</mgrwt>
</event>
<event>
11   0  0.7688500E-08  0.1596284E+03  0.7546771E-02  0.1204283E+00
        1   -1    0    0  501    0  0.00000000000E+00  0.00000000000E+00  0.17553072606E+03  0.17553072606E+03  0.00000000000E+00 0. -1.
       -2   -1    0    0    0  501  0.00000000000E+00  0.00000000000E+00 -0.47897988064E+03  0.47897988064E+03  0.00000000000E+00 0.  1.
       23    2    1    2    0    0  0.59423717444E+02 -0.29623058529E+02 -0.26412290721E+03  0.28791925854E+03  0.93423153107E+02 0.  0.
      -24    2    1    2    0    0  0.30056600536E+02 -0.89061744839E+02 -0.12298933284E+03  0.17454030332E+03  0.80638377095E+02 0.  0.
       23    2    1    2    0    0 -0.89480317980E+02  0.11868480337E+03  0.83663085465E+02  0.19205104484E+03  0.88268239459E+02 0.  0.
      -11    1    3    3    0    0  0.38334890189E+02  0.93618080777E+01 -0.29821693290E+02  0.49462517597E+02  0.00000000000E+00 0. -1.
       11    1    3    3    0    0  0.21088827255E+02 -0.38984866607E+02 -0.23430121392E+03  0.23845674095E+03  0.00000000000E+00 0.  1.
      -13    1    5    5    0    0  0.76196872240E+00  0.66024790564E+02  0.48062563856E+02  0.81669232945E+02  0.00000000000E+00 0. -1.
       13    1    5    5    0    0 -0.90242286702E+02  0.52660012804E+02  0.35600521608E+02  0.11038181189E+03  0.00000000000E+00 0.  1.
        1    1    4    4  502    0 -0.81803724063E+01 -0.78597914098E+02 -0.10391192209E+03  0.13054592351E+03  0.00000000000E+00 0. -1.
       -2    1    4    4    0  502  0.38236972942E+02 -0.10463830741E+02 -0.19077410748E+02  0.43994379805E+02  0.00000000000E+00 0.  1.
<mgrwt>
<rscale>  0 0.14694099E+03</rscale>
<asrwt>0</asrwt>
<pdfrwt beam="1">  1        1 0.27004727E-01 0.15962841E+03</pdfrwt>
<pdfrwt beam="2">  1       -2 0.73689212E-01 0.15962841E+03</pdfrwt>
<totfact> 0.26132217E+02</totfact>
</mgrwt>
</event>
<event>
10   0  0.7688500E-08  0.4801466E+03  0.7546771E-02  0.1120148E+00
        2   -1    0    0  502    0  0.00000000000E+00  0.00000000000E+00  0.16054505512E+04  0.16054505512E+04  0.00000000000E+00 0. -1.
        1   -1    0    0  501    0  0.00000000000E+00  0.00000000000E+00 -0.13467368867E+04  0.13467368867E+04  0.00000000000E+00 0. -1.
       23    2    1    2    0    0  0.38949934338E+03  0.11538545760E+03  0.26448360728E+03  0.49325436992E+03  0.91240082220E+02 0.  0.
       23    2    1    2    0    0  0.70389657015E+02  0.16452185403E+03  0.11927977129E+03  0.23367792626E+03  0.91408780290E+02 0.  0.
      -11    1    3    3    0    0  0.15567900111E+03  0.31185365140E+02  0.54388108361E+02  0.16782891502E+03  0.00000000000E+00 0.  1.
       11    1    3    3    0    0  0.23382034227E+03  0.84200092463E+02  0.21009549892E+03  0.32542545490E+03  0.00000000000E+00 0. -1.
      -13    1    4    4    0    0  0.61934816666E+02  0.12175081897E+03  0.13022472429E+03  0.18872642171E+03  0.00000000000E+00 0. -1.
       13    1    4    4    0    0  0.84548403486E+01  0.42771035065E+02 -0.10944952994E+02  0.44951504556E+02  0.00000000000E+00 0.  1.
        2    1    1    2  501    0 -0.44785372623E+03 -0.16108413840E+03 -0.11232566338E+04  0.12199289017E+04  0.00000000000E+00 0. -1.
        1    1    1    2  502    0 -0.12035274168E+02 -0.11882317324E+03  0.99820691969E+03  0.10053262400E+04  0.00000000000E+00 0. -1.
<mgrwt>
<rscale>  0 0.23946701E+03</rscale>
<asrwt>0</asrwt>
<pdfrwt beam="1">  1        2 0.24699239E+00 0.11943113E+03</pdfrwt>
<pdfrwt beam="2">  1        1 0.20719029E+00 0.48014660E+03</pdfrwt>
<totfact> 0.15384315E+01</totfact>
</mgrwt>
</event>
<event>
10   0  0.7688500E-08  0.8401376E+02  0.7546771E-02  0.1387155E+00
       -2   -1    0    0    0  501  0.00000000000E+00  0.00000000000E+00  0.19198979962E+04  0.19198979962E+04  0.00000000000E+00 0.  1.
        2   -1    0    0  502    0  0.00000000000E+00  0.00000000000E+00 -0.30501278249E+03  0.30501278249E+03  0.00000000000E+00 0. -1.
       23    2    1    2    0    0 -0.64823561891E+02 -0.99167574892E+02 -0.22435861180E+03  0.27134970481E+03  0.96216285136E+02 0.  0.
       23    2    1    2    0    0 -0.45495790362E+02  0.31907369857E+02  0.83804838598E+03  0.84568936340E+03  0.98881014011E+02 0.  0.
      -11    1    3    3    0    0 -0.48322911543E+02  0.36773425973E+01 -0.71556616148E+02  0.86423237286E+02  0.00000000000E+00 0.  1.
       11    1    3    3    0    0 -0.16500650348E+02 -0.10284491749E+03 -0.15280199565E+03  0.18492646752E+03  0.00000000000E+00 0. -1.
      -13    1    4    4    0    0 -0.92718237257E+01 -0.32121432766E+02  0.41040950817E+03  0.41176900994E+03  0.00000000000E+00 0. -1.
       13    1    4    4    0    0 -0.36223966637E+02  0.64028802622E+02  0.42763887781E+03  0.43392035345E+03  0.00000000000E+00 0.  1.
        1    1    1    2  502    0  0.43572311135E+02  0.16729837011E+02 -0.41117643942E+02  0.62202044881E+02  0.00000000000E+00 0. -1.
       -1    1    1    2    0  501  0.66747041119E+02  0.50530368025E+02  0.10423130835E+04  0.10456696656E+04  0.00000000000E+00 0.  1.
<mgrwt>
<rscale>  0 0.62619747E+02</rscale>
<asrwt>0</asrwt>
<pdfrwt beam="1">  1        2 0.46925043E-01 0.46673694E+02</pdfrwt>
<pdfrwt beam="2">  1       -2 0.29536892E+00 0.84013763E+02</pdfrwt>
<totfact> 0.47449671E+00</totfact>
</mgrwt>
</event>
<event>
10   0  0.7688500E-08  0.1573084E+03  0.7546771E-02  0.1231443E+00
        2   -1    0    0  502    0  0.00000000000E+00  0.00000000000E+00  0.33230526630E+04  0.33230526630E+04  0.00000000000E+00 0. -1.
       -4   -1    0    0    0  501  0.00000000000E+00  0.00000000000E+00 -0.11021550132E+03  0.11021550132E+03  0.00000000000E+00 0.  1.
       23    2    1    2    0    0 -0.37345094197E+02 -0.15409620965E+02  0.13939431849E+03  0.17130765217E+03  0.91013313243E+02 0.  0.
       23    2    1    2    0    0 -0.43977192306E+02  0.45001466460E+02  0.26742790490E+02  0.11432623418E+03  0.91630702011E+02 0.  0.
      -11    1    4    4    0    0 -0.65524791595E+02  0.12610573169E+02 -0.67741551312E+00  0.66730680807E+02  0.00000000000E+00 0. -1.
       11    1    4    4    0    0  0.21547599288E+02  0.32390893291E+02  0.27420206003E+02  0.47595553370E+02  0.00000000000E+00 0.  1.
      -13    1    3    3    0    0  0.26659232897E+02  0.98243056303E+01  0.59065778456E+02  0.65543862141E+02  0.00000000000E+00 0. -1.
       13    1    3    3    0    0 -0.64004327094E+02 -0.25233926596E+02  0.80328540033E+02  0.10576379003E+03  0.00000000000E+00 0.  1.
        1    1    1    2  502    0  0.75647537664E+02 -0.14337519549E+03  0.30278190189E+04  0.30321555053E+04  0.00000000000E+00 0. -1.
       -3    1    1    2    0  501  0.56747488398E+01  0.11378335000E+03  0.18881033773E+02  0.11547877271E+03  0.00000000000E+00 0.  1.
<mgrwt>
<rscale>  0 0.12734936E+03</rscale>
<asrwt>0</asrwt>
<pdfrwt beam="1">  1        2 0.51123887E+00 0.15730836E+03</pdfrwt>
<pdfrwt beam="2">  1       -4 0.16956231E-01 0.10309599E+03</pdfrwt>
<totfact> 0.21596126E+01</totfact>
</mgrwt>
</event>
<event>
10   0  0.7688500E-08  0.1180390E+03  0.7546771E-02  0.1247816E+00
        1   -1    0    0  501    0  0.00000000000E+00  0.00000000000E+00  0.19502681138E+03  0.19502681138E+03  0.00000000000E+00 0. -1.
        2   -1    0    0  502    0  0.00000000000E+00  0.00000000000E+00 -0.30603406557E+04  0.30603406557E+04  0.00000000000E+00 0. -1.
       23    2    1    2    0    0 -0.17116345074E+02 -0.49339597021E+02 -0.13366551192E+04  0.13407366377E+04  0.90556384389E+02 0.  0.
       23    2    1    2    0    0  0.37644479686E+02  0.10237799107E+03 -0.61236380259E+02  0.15478906015E+03  0.91166874295E+02 0.  0.
      -11    1    3    3    0    0  0.36414919789E+02 -0.20682782648E+02 -0.42371461406E+03  0.42577916582E+03  0.00000000000E+00 0.  1.
       11    1    3    3    0    0 -0.53531264863E+02 -0.28656814373E+02 -0.91294050518E+03  0.91495747187E+03  0.00000000000E+00 0. -1.
      -13    1    4    4    0    0  0.53497470753E+02  0.18388058532E+02 -0.21302887103E+02  0.60447606011E+02  0.00000000000E+00 0.  1.
       13    1    4    4    0    0 -0.15852991067E+02  0.83989932538E+02 -0.39933493156E+02  0.94341454140E+02  0.00000000000E+00 0. -1.
        2    1    1    2  501    0  0.96935392801E+02 -0.93395517505E+02  0.11226531407E+03  0.17527890292E+03  0.00000000000E+00 0. -1.
        1    1    1    2  502    0 -0.11746352741E+03  0.40357123455E+02 -0.15796876589E+04  0.15845628663E+04  0.00000000000E+00 0. -1.
<mgrwt>
<rscale>  0 0.11718397E+03</rscale>
<asrwt>0</asrwt>
<pdfrwt beam="1">  1        2 0.47082164E+00 0.11803905E+03</pdfrwt>
<pdfrwt beam="2">  1        1 0.30004125E-01 0.11633508E+03</pdfrwt>
<totfact> 0.44535400E+01</totfact>
</mgrwt>
</event>
<event>
10   0  0.7688500E-08  0.2402744E+03  0.7546771E-02  0.1255058E+00
       -3   -1    0    0    0  502  0.00000000000E+00  0.00000000000E+00  0.59023736026E+03  0.59023736026E+03  0.00000000000E+00 0.  1.
       -2   -1    0    0    0  501  0.00000000000E+00  0.00000000000E+00 -0.46358004905E+03  0.46358004905E+03  0.00000000000E+00 0.  1.
       23    2    1    2    0    0  0.54543369932E+02  0.13276507682E+02 -0.19830640847E+03  0.22444942916E+03  0.88886836762E+02 0.  0.
       23    2    1    2    0    0  0.15679321932E+03 -0.73426411276E+02 -0.83564172964E+02  0.21252590261E+03  0.90602079336E+02 0.  0.
      -11    1    4    4    0    0  0.11112779945E+02 -0.36814791588E+02 -0.41411034972E+02  0.56512800101E+02  0.00000000000E+00 0. -1.
       11    1    4    4    0    0  0.14568043937E+03 -0.36611619687E+02 -0.42153137992E+02  0.15601310251E+03  0.00000000000E+00 0.  1.
      -13    1    3    3    0    0  0.24252166009E+02  0.37099570204E+02 -0.34490487918E+02  0.56161725599E+02  0.00000000000E+00 0.  1.
       13    1    3    3    0    0  0.30291203922E+02 -0.23823062522E+02 -0.16381592055E+03  0.16828770356E+03  0.00000000000E+00 0. -1.
       -4    1    1    2    0  502 -0.25510964887E+03  0.29963653874E+02  0.46997151273E+03  0.53558563860E+03  0.00000000000E+00 0.  1.
       -1    1    1    2    0  501  0.43773059619E+02  0.30186249719E+02 -0.61443620083E+02  0.81256438941E+02  0.00000000000E+00 0.  1.
<mgrwt>
<rscale>  0 0.11303068E+03</rscale>
<asrwt>0</asrwt>
<pdfrwt beam="1">  1       -2 0.71320008E-01 0.53172271E+02</pdfrwt>
<pdfrwt beam="2">  1       -3 0.90805748E-01 0.24027440E+03</pdfrwt>
<totfact> 0.84762983E+00</totfact>
</mgrwt>
</event>
<event>
10   0  0.7688500E-08  0.3899259E+03  0.7546771E-02  0.1107463E+00
        2   -1    0    0  502    0  0.00000000000E+00  0.00000000000E+00  0.61432119941E+03  0.61432119941E+03  0.00000000000E+00 0. -1.
        1   -1    0    0  501    0  0.00000000000E+00  0.00000000000E+00 -0.76165448463E+03  0.76165448463E+03  0.00000000000E+00 0. -1.
       23    2    1    2    0    0  0.25385232788E+03  0.11969755396E+03 -0.83673681564E+02  0.30662285678E+03  0.90817302975E+02 0.  0.
       23    2    1    2    0    0 -0.73401528461E+01  0.59754812954E+02  0.13020797023E+03  0.16953976957E+03  0.90360956375E+02 0.  0.
      -11    1    3    3    0    0  0.15045954531E+03  0.20818947436E+02 -0.40937032008E+02  0.15731288547E+03  0.00000000000E+00 0.  1.
       11    1    3    3    0    0  0.10339278257E+03  0.98878606525E+02 -0.42736649556E+02  0.14930997131E+03  0.00000000000E+00 0. -1.
      -13    1    4    4    0    0  0.16895242745E+02  0.75760856522E+02  0.79544724990E+02  0.11114189076E+03  0.00000000000E+00 0.  1.
       13    1    4    4    0    0 -0.24235395591E+02 -0.16006043568E+02  0.50663245245E+02  0.58397878804E+02  0.00000000000E+00 0. -1.
        2    1    1    2  501    0 -0.34402889478E+03 -0.41168166680E+03 -0.31305753132E+03  0.62116237260E+03  0.00000000000E+00 0. -1.
        1    1    1    2  502    0  0.97516719745E+02  0.23222929988E+03  0.11918995742E+03  0.27865068509E+03  0.00000000000E+00 0. -1.
<mgrwt>
<rscale>  0 0.25946835E+03</rscale>
<asrwt>0</asrwt>
<pdfrwt beam="1">  1        2 0.94510954E-01 0.17265800E+03</pdfrwt>
<pdfrwt beam="2">  1        1 0.11717761E+00 0.38992589E+03</pdfrwt>
<totfact> 0.16640687E+02</totfact>
</mgrwt>
</event>
<event>
10   0  0.7688500E-08  0.2783280E+03  0.7546771E-02  0.1112699E+00
        1   -1    0    0  501    0  0.00000000000E+00  0.00000000000E+00  0.96342696506E+03  0.96342696506E+03  0.00000000000E+00 0. -1.
        2   -1    0    0  502    0  0.00000000000E+00  0.00000000000E+00 -0.30797739770E+03  0.30797739770E+03  0.00000000000E+00 0. -1.
       23    2    1    2    0    0  0.20274350491E+03  0.13681954600E+03  0.19124428901E+03  0.32341584849E+03  0.90547865922E+02 0.  0.
       23    2    1    2    0    0 -0.14057158473E+03 -0.22923364482E+03  0.14172025380E+03  0.31767015525E+03  0.92310686548E+02 0.  0.
      -11    1    3    3    0    0  0.14475859309E+03  0.12317622801E+03  0.18195868772E+03  0.26312810085E+03  0.00000000000E+00 0.  1.
       11    1    3    3    0    0  0.57984911815E+02  0.13643317997E+02  0.92856012955E+01  0.60287747641E+02  0.00000000000E+00 0. -1.
      -13    1    4    4    0    0 -0.13937871810E+02 -0.10220027362E+03  0.34840635156E+02  0.10887162191E+03  0.00000000000E+00 0.  1.
       13    1    4    4    0    0 -0.12663371292E+03 -0.12703337120E+03  0.10687961865E+03  0.20879853335E+03  0.00000000000E+00 0. -1.
        2    1    1    2  501    0 -0.42498107708E+02 -0.22225838667E+03  0.13597101440E+03  0.26399431123E+03  0.00000000000E+00 0. -1.
        1    1    1    2  502    0 -0.19673812471E+02  0.31467248548E+03  0.18651401014E+03  0.36632404780E+03  0.00000000000E+00 0. -1.
<mgrwt>
<rscale>  0 0.25096105E+03</rscale>
<asrwt>0</asrwt>
<pdfrwt beam="1">  1        2 0.47381138E-01 0.22628495E+03</pdfrwt>
<pdfrwt beam="2">  1        1 0.14821953E+00 0.27832804E+03</pdfrwt>
<totfact> 0.24718591E+02</totfact>
</mgrwt>
</event>
<event>
10   0  0.7688500E-08  0.1127495E+03  0.7546771E-02  0.1269713E+00
       -1   -1    0    0    0  501  0.00000000000E+00  0.00000000000E+00  0.19861937643E+03  0.19861937643E+03  0.00000000000E+00 0.  1.
        1   -1    0    0  502    0  0.00000000000E+00  0.00000000000E+00 -0.24363429740E+04  0.24363429740E+04  0.00000000000E+00 0. -1.
       23    2    1    2    0    0 -0.39099416405E+02  0.77859080234E+01 -0.41465929328E+03  0.42617327590E+03  0.89955249202E+02 0.  0.
       23    2    1    2    0    0 -0.22184146041E+02 -0.36700450040E+02  0.49185347576E+02  0.11311443789E+03  0.92393821622E+02 0.  0.
      -11    1    3    3    0    0 -0.67740253274E+02 -0.25974549190E+00 -0.31322469313E+03  0.32046609457E+03  0.00000000000E+00 0. -1.
       11    1    3    3    0    0  0.28640836869E+02  0.80456535153E+01 -0.10143460014E+03  0.10570718132E+03  0.00000000000E+00 0.  1.
      -13    1    4    4    0    0 -0.10639888356E+02  0.25723774014E+02  0.40348553277E+02  0.49019644280E+02  0.00000000000E+00 0.  1.
       13    1    4    4    0    0 -0.11544257685E+02 -0.62424224054E+02  0.88367942989E+01  0.64094793609E+02  0.00000000000E+00 0. -1.
        2    1    1    2  502    0 -0.92078081066E+02  0.34038401372E+02 -0.19294255994E+04  0.19319213569E+04  0.00000000000E+00 0. -1.
       -2    1    1    2    0  501  0.15336164351E+03 -0.51238593559E+01  0.57175947541E+02  0.16375327970E+03  0.00000000000E+00 0.  1.
<mgrwt>
<rscale>  0 0.10520653E+03</rscale>
<asrwt>0</asrwt>
<pdfrwt beam="1">  1        1 0.37482200E+00 0.98168151E+02</pdfrwt>
<pdfrwt beam="2">  1       -1 0.30556827E-01 0.11274955E+03</pdfrwt>
<totfact> 0.19892426E+01</totfact>
</mgrwt>
</event>
<event>
10   0  0.7688500E-08  0.1028658E+03  0.7546771E-02  0.1448593E+00
        1   -1    0    0  501    0  0.00000000000E+00  0.00000000000E+00  0.55383587034E+03  0.55383587034E+03  0.00000000000E+00 0. -1.
        2   -1    0    0  502    0  0.00000000000E+00  0.00000000000E+00 -0.14935368532E+04  0.14935368532E+04  0.00000000000E+00 0. -1.
       23    2    1    2    0    0 -0.69459052307E+01  0.24381482541E+03 -0.43363965133E+03  0.50552429441E+03  0.89540774730E+02 0.  0.
       23    2    1    2    0    0 -0.14203501704E+02 -0.32070054888E+03  0.10868038916E+03  0.35129663454E+03  0.92451700567E+02 0.  0.
      -11    1    4    4    0    0  0.19689832740E+02 -0.25801596870E+03  0.61944459206E+02  0.26607714228E+03  0.00000000000E+00 0. -1.
       11    1    4    4    0    0 -0.33893334444E+02 -0.62684580181E+02  0.46735929958E+02  0.85219492261E+02  0.00000000000E+00 0.  1.
      -13    1    3    3    0    0 -0.34318269344E+02  0.40536263489E+02 -0.68019419303E+02  0.86299326015E+02  0.00000000000E+00 0.  1.
       13    1    3    3    0    0  0.27372364113E+02  0.20327856192E+03 -0.36562023203E+03  0.41922496839E+03  0.00000000000E+00 0. -1.
        2    1    1    2  501    0 -0.10590163441E+02 -0.21231237474E+02  0.28446424401E+03  0.28545196290E+03  0.00000000000E+00 0. -1.
        1    1    1    2  502    0  0.31739570376E+02  0.98116960949E+02 -0.89920596475E+03  0.90509983173E+03  0.00000000000E+00 0. -1.
<mgrwt>
<rscale>  0 0.49402237E+02</rscale>
<asrwt>0</asrwt>
<pdfrwt beam="1">  1        2 0.22977490E+00 0.10286581E+03</pdfrwt>
<pdfrwt beam="2">  1        1 0.85205519E-01 0.23725872E+02</pdfrwt>
<totfact> 0.85755905E+01</totfact>
</mgrwt>
</event>
<event>
10   0  0.7688500E-08  0.2336086E+03  0.7546771E-02  0.1178834E+00
        1   -1    0    0  501    0  0.00000000000E+00  0.00000000000E+00  0.10117404797E+04  0.10117404797E+04  0.00000000000E+00 0. -1.
        2   -1    0    0  502    0  0.00000000000E+00  0.00000000000E+00 -0.13116366557E+04  0.13116366557E+04  0.00000000000E+00 0. -1.
       23    2    1    2    0    0  0.29313033476E+02 -0.13225367013E+03 -0.24775250673E+03  0.29605642637E+03  0.88982109507E+02 0.  0.
       23    2    1    2    0    0 -0.65554892410E+02  0.41601960642E+02 -0.20072740529E+02  0.12125166986E+03  0.90944408758E+02 0.  0.
      -11    1    4    4    0    0 -0.77463685785E+02  0.12569639513E+02 -0.35677234893E+02  0.86206052818E+02  0.00000000000E+00 0.  1.
       11    1    4    4    0    0  0.11908793375E+02  0.29032321128E+02  0.15604494364E+02  0.35045617046E+02  0.00000000000E+00 0. -1.
      -13    1    3    3    0    0 -0.15253335376E+02 -0.14549643230E+02 -0.36162516179E+01  0.21387698193E+02  0.00000000000E+00 0.  1.
       13    1    3    3    0    0  0.44566368852E+02 -0.11770402690E+03 -0.24413625511E+03  0.27466872818E+03  0.00000000000E+00 0. -1.
        2    1    1    2  501    0  0.37188869523E+02  0.23678698690E+03  0.91597983254E+03  0.94682107222E+03  0.00000000000E+00 0. -1.
        1    1    1    2  502    0 -0.94701058848E+00 -0.14613527741E+03 -0.94805076128E+03  0.95924796695E+03  0.00000000000E+00 0. -1.
<mgrwt>
<rscale>  0 0.16905738E+03</rscale>
<asrwt>0</asrwt>
<pdfrwt beam="1">  1        2 0.20179025E+00 0.12234311E+03</pdfrwt>
<pdfrwt beam="2">  1        1 0.15565238E+00 0.23360857E+03</pdfrwt>
<totfact> 0.39768460E+01</totfact>
</mgrwt>
</event>
<event>
11   0  0.7688500E-08  0.1644446E+03  0.7546771E-02  0.1202399E+00
        2   -1    0    0  501    0  0.00000000000E+00  0.00000000000E+00  0.61672719728E+03  0.61672719728E+03  0.00000000000E+00 0. -1.
       -1   -1    0    0    0  501  0.00000000000E+00  0.00000000000E+00 -0.22741166611E+03  0.22741166611E+03  0.00000000000E+00 0.  1.
       23    2    1    2    0    0 -0.16777604209E+02 -0.51295055897E+02  0.43477122979E+02  0.11752685646E+03  0.94919076089E+02 0.  0.
       24    2    1    2    0    0 -0.90991781755E+02 -0.38034653990E+02 -0.15379480778E+03  0.19975896263E+03  0.80775373736E+02 0.  0.
       23    2    1    2    0    0  0.10776938596E+03  0.89329709887E+02  0.49963321597E+03  0.52685304429E+03  0.91360506582E+02 0.  0.
      -11    1    5    5    0    0  0.11727743278E+03  0.93008528254E+02  0.49157346175E+03  0.51385703349E+03  0.00000000000E+00 0. -1.
       11    1    5    5    0    0 -0.95080468143E+01 -0.36788183668E+01  0.80597542154E+01  0.12996010804E+02  0.00000000000E+00 0.  1.
      -13    1    3    3    0    0  0.35900046763E+02 -0.33078572678E+02  0.37323865907E+02  0.61449786771E+02  0.00000000000E+00 0. -1.
       13    1    3    3    0    0 -0.52677650972E+02 -0.18216483219E+02  0.61532570721E+01  0.56077069693E+02  0.00000000000E+00 0.  1.
        4    1    4    4  502    0 -0.31989898741E+02 -0.35571168432E+02 -0.12543621446E+03  0.13424941542E+03  0.00000000000E+00 0. -1.
       -3    1    4    4    0  502 -0.59001883015E+02 -0.24634855577E+01 -0.28358593323E+02  0.65509547210E+02  0.00000000000E+00 0.  1.
<mgrwt>
<rscale>  0 0.14844302E+03</rscale>
<asrwt>0</asrwt>
<pdfrwt beam="1">  1        2 0.94881107E-01 0.16444463E+03</pdfrwt>
<pdfrwt beam="2">  1       -1 0.34986410E-01 0.16444463E+03</pdfrwt>
<totfact> 0.44241154E+02</totfact>
</mgrwt>
</event>
<event>
10   0  0.7688500E-08  0.1090943E+03  0.7546771E-02  0.1362648E+00
        1   -1    0    0  501    0  0.00000000000E+00  0.00000000000E+00  0.74356884590E+03  0.74356884590E+03  0.00000000000E+00 0. -1.
        2   -1    0    0  502    0  0.00000000000E+00  0.00000000000E+00 -0.20174686606E+04  0.20174686606E+04  0.00000000000E+00 0. -1.
       23    2    1    2    0    0  0.11758729132E+03 -0.37680577989E+03 -0.16494539767E+04  0.16985075693E+04  0.91761511239E+02 0.  0.
       23    2    1    2    0    0 -0.14088892277E+03  0.50408129294E+03  0.43530687835E+03  0.68724645102E+03  0.94169887196E+02 0.  0.
      -11    1    3    3    0    0 -0.12125591109E+00 -0.48743642635E+02 -0.33937170121E+03  0.34285435535E+03  0.00000000000E+00 0.  1.
       11    1    3    3    0    0  0.11770854723E+03 -0.32806213726E+03 -0.13100822755E+04  0.13556532139E+04  0.00000000000E+00 0. -1.
      -13    1    4    4    0    0 -0.39944931423E+02  0.29527950662E+03  0.21569411228E+03  0.36784444355E+03  0.00000000000E+00 0. -1.
       13    1    4    4    0    0 -0.10094399134E+03  0.20880178632E+03  0.21961276607E+03  0.31940200748E+03  0.00000000000E+00 0.  1.
        2    1    1    2  501    0  0.53224276708E+02 -0.95066668839E+02  0.13622481784E+03  0.17443536382E+03  0.00000000000E+00 0. -1.
        1    1    1    2  502    0 -0.29922645256E+02 -0.32208844208E+02 -0.19597753424E+03  0.20084812239E+03  0.00000000000E+00 0. -1.
<mgrwt>
<rscale>  0 0.69254243E+02</rscale>
<asrwt>0</asrwt>
<pdfrwt beam="1">  1        2 0.31037979E+00 0.43963330E+02</pdfrwt>
<pdfrwt beam="2">  1        1 0.11439521E+00 0.10909433E+03</pdfrwt>
<totfact> 0.32764419E+01</totfact>
</mgrwt>
</event>
<event>
10   0  0.7688500E-08  0.1355459E+03  0.7546771E-02  0.1300062E+00
        1   -1    0    0  501    0  0.00000000000E+00  0.00000000000E+00  0.98771912953E+03  0.98771912953E+03  0.00000000000E+00 0. -1.
        2   -1    0    0  502    0  0.00000000000E+00  0.00000000000E+00 -0.45404953859E+04  0.45404953859E+04  0.00000000000E+00 0. -1.
       23    2    1    2    0    0 -0.66445392875E+02  0.12019043411E+02  0.26066798878E+03  0.28499771374E+03  0.93361923835E+02 0.  0.
       23    2    1    2    0    0  0.12554170293E+03  0.11374632541E+02  0.25074770630E+00  0.15686319946E+03  0.93358979373E+02 0.  0.
      -11    1    4    4    0    0  0.12670104153E+02  0.30365718414E+02  0.23027812634E+02  0.40160783717E+02  0.00000000000E+00 0.  1.
       11    1    4    4    0    0  0.11287159878E+03 -0.18991085873E+02 -0.22777064928E+02  0.11670241574E+03  0.00000000000E+00 0. -1.
      -13    1    3    3    0    0 -0.34341436215E+02 -0.29906500018E+02  0.49215511294E+02  0.67051469310E+02  0.00000000000E+00 0. -1.
       13    1    3    3    0    0 -0.32103956660E+02  0.41925543430E+02  0.21145247749E+03  0.21794624443E+03  0.00000000000E+00 0.  1.
        2    1    1    2  501    0 -0.11981051672E+03 -0.31929992521E+02  0.63007568154E+03  0.64215998693E+03  0.00000000000E+00 0. -1.
        1    1    1    2  502    0  0.60714206671E+02  0.85363165691E+01 -0.44437706744E+04  0.44441936153E+04  0.00000000000E+00 0. -1.
<mgrwt>
<rscale>  0 0.91161976E+02</rscale>
<asrwt>0</asrwt>
<pdfrwt beam="1">  1        2 0.69853775E+00 0.61311366E+02</pdfrwt>
<pdfrwt beam="2">  1        1 0.15195679E+00 0.13554592E+03</pdfrwt>
<totfact> 0.52668758E-01</totfact>
</mgrwt>
</event>
<event>
10   0  0.7688500E-08  0.1358417E+03  0.7546771E-02  0.1229855E+00
        1   -1    0    0  501    0  0.00000000000E+00  0.00000000000E+00  0.32466645267E+04  0.32466645267E+04  0.00000000000E+00 0. -1.
        2   -1    0    0  502    0  0.00000000000E+00  0.00000000000E+00 -0.12758464193E+04  0.12758464193E+04  0.00000000000E+00 0. -1.
       23    2    1    2    0    0  0.18811523137E+02 -0.19079493327E+02 -0.16370690623E+03  0.18991652912E+03  0.92468569886E+02 0.  0.
       23    2    1    2    0    0 -0.47922163617E+02  0.61378613260E+02  0.28151603868E+03  0.30634590175E+03  0.92372417693E+02 0.  0.
      -11    1    3    3    0    0 -0.65206206051E+01  0.34496879239E+02 -0.79898379021E+02  0.87271439431E+02  0.00000000000E+00 0.  1.
       11    1    3    3    0    0  0.25332143742E+02 -0.53576372566E+02 -0.83808527207E+02  0.10264508969E+03  0.00000000000E+00 0. -1.
      -13    1    4    4    0    0  0.21012950055E+02  0.13914323495E+02  0.21288118150E+02  0.32989944570E+02  0.00000000000E+00 0.  1.
       13    1    4    4    0    0 -0.68935113672E+02  0.47464289765E+02  0.26022792053E+03  0.27335595718E+03  0.00000000000E+00 0. -1.
        2    1    1    2  501    0  0.96820503655E+02  0.84018441927E+02  0.29334969922E+04  0.29362966321E+04  0.00000000000E+00 0. -1.
        1    1    1    2  502    0 -0.67709863174E+02 -0.12631756186E+03 -0.10804880173E+04  0.10899518831E+04  0.00000000000E+00 0. -1.
<mgrwt>
<rscale>  0 0.12839595E+03</rscale>
<asrwt>0</asrwt>
<pdfrwt beam="1">  1        2 0.19628406E+00 0.12135829E+03</pdfrwt>
<pdfrwt beam="2">  1        1 0.49948685E+00 0.13584174E+03</pdfrwt>
<totfact> 0.14284675E+00</totfact>
</mgrwt>
</event>
<event>
10   0  0.7688500E-08  0.2264887E+03  0.7546771E-02  0.1195197E+00
        1   -1    0    0  501    0  0.00000000000E+00  0.00000000000E+00  0.24020716446E+03  0.24020716446E+03  0.00000000000E+00 0. -1.
        2   -1    0    0  502    0  0.00000000000E+00  0.00000000000E+00 -0.97175519457E+03  0.97175519457E+03  0.00000000000E+00 0. -1.
       23    2    1    2    0    0 -0.15856428411E+02  0.87582665660E+02 -0.14662960008E+03  0.19443299970E+03  0.91552182429E+02 0.  0.
       23    2    1    2    0    0 -0.17732348647E+03 -0.48129278584E+02 -0.37506064844E+03  0.42723731495E+03  0.90006594014E+02 0.  0.
      -11    1    3    3    0    0 -0.49428719768E+02  0.76286297164E+02 -0.92058773454E+02  0.12937393572E+03  0.00000000000E+00 0. -1.
       11    1    3    3    0    0  0.33572291356E+02  0.11296368496E+02 -0.54570826625E+02  0.65059063986E+02  0.00000000000E+00 0.  1.
      -13    1    4    4    0    0 -0.18561531002E+03 -0.45459280835E+02 -0.32997276230E+03  0.38131563486E+03  0.00000000000E+00 0. -1.
       13    1    4    4    0    0  0.82918235510E+01 -0.26699977490E+01 -0.45087886137E+02  0.45921680088E+02  0.00000000000E+00 0.  1.
        2    1    1    2  501    0  0.20186633586E+03 -0.14431694715E+03  0.96589200831E+02  0.26628344392E+03  0.00000000000E+00 0. -1.
        1    1    1    2  502    0 -0.86864209802E+01  0.10486356008E+03 -0.30644698241E+03  0.32400860046E+03  0.00000000000E+00 0. -1.
<mgrwt>
<rscale>  0 0.15437539E+03</rscale>
<asrwt>0</asrwt>
<pdfrwt beam="1">  1        2 0.14950080E+00 0.10522272E+03</pdfrwt>
<pdfrwt beam="2">  1        1 0.36954948E-01 0.22648874E+03</pdfrwt>
<totfact> 0.45258743E+02</totfact>
</mgrwt>
</event>
<event>
10   0  0.7688500E-08  0.9067774E+02  0.7546771E-02  0.1511843E+00
        2   -1    0    0  502    0  0.00000000000E+00  0.00000000000E+00  0.15610523363E+04  0.15610523363E+04  0.00000000000E+00 0. -1.
        1   -1    0    0  501    0  0.00000000000E+00  0.00000000000E+00 -0.58626618021E+03  0.58626618021E+03  0.00000000000E+00 0. -1.
       23    2    1    2    0    0 -0.22167830020E+02 -0.40619060540E+02  0.63292978795E+03  0.64404497020E+03  0.10978381666E+03 0.  0.
       23    2    1    2    0    0 -0.72790261907E+02  0.55581991936E+02 -0.45300700924E+03  0.47127092472E+03  0.92158309517E+02 0.  0.
      -11    1    3    3    0    0 -0.64780648367E+02 -0.27289239994E+02  0.29947372127E+03  0.30761297884E+03  0.00000000000E+00 0.  1.
       11    1    3    3    0    0  0.42612818347E+02 -0.13329820546E+02  0.33345606668E+03  0.33643199136E+03  0.00000000000E+00 0. -1.
      -13    1    4    4    0    0 -0.62956433468E+02  0.56588284300E+02 -0.18914133108E+03  0.20722014757E+03  0.00000000000E+00 0. -1.
       13    1    4    4    0    0 -0.98338284395E+01 -0.10062923639E+01 -0.26386567816E+03  0.26405077715E+03  0.00000000000E+00 0.  1.
        2    1    1    2  501    0  0.92315105921E+01  0.14531542503E+02 -0.11568156490E+03  0.11695559402E+03  0.00000000000E+00 0. -1.
        1    1    1    2  502    0  0.85726581335E+02 -0.29494473900E+02  0.91054494225E+03  0.91504702753E+03  0.00000000000E+00 0. -1.
<mgrwt>
<rscale>  0 0.39510721E+02</rscale>
<asrwt>0</asrwt>
<pdfrwt beam="1">  1        2 0.24016190E+00 0.90677743E+02</pdfrwt>
<pdfrwt beam="2">  1        1 0.90194797E-01 0.17215880E+02</pdfrwt>
<totfact> 0.75295146E+01</totfact>
</mgrwt>
</event>
<event>
11   0  0.7688500E-08  0.1633247E+03  0.7546771E-02  0.1198945E+00
       -1   -1    0    0    0  501  0.00000000000E+00  0.00000000000E+00  0.19181638976E+03  0.19181638976E+03  0.00000000000E+00 0.  1.
        2   -1    0    0  501    0  0.00000000000E+00  0.00000000000E+00 -0.78483909497E+03  0.78483909497E+03  0.00000000000E+00 0. -1.
       23    2    1    2    0    0 -0.41711547758E+02  0.60443496790E+02  0.24511083222E+02  0.12063470452E+03  0.92513075899E+02 0.  0.
       24    2    1    2    0    0 -0.10524482199E+03 -0.90992365480E+02 -0.65648633916E+03  0.67595180260E+03  0.81119928491E+02 0.  0.
       23    2    1    2    0    0  0.14695636975E+03  0.30548868691E+02  0.38952550723E+02  0.18006897762E+03  0.91532111880E+02 0.  0.
      -11    1    5    5    0    0  0.86781893905E+02 -0.24157347923E+02  0.43211465871E+00  0.90082524895E+02  0.00000000000E+00 0. -1.
       11    1    5    5    0    0  0.60174475842E+02  0.54706216614E+02  0.38520436065E+02  0.89986452723E+02  0.00000000000E+00 0.  1.
      -13    1    3    3    0    0  0.27874945469E+02  0.49034442407E+01  0.53608084712E-01  0.28302989668E+02  0.00000000000E+00 0.  1.
       13    1    3    3    0    0 -0.69586493226E+02  0.55540052549E+02  0.24457475137E+02  0.92331714848E+02  0.00000000000E+00 0. -1.
        4    1    4    4  502    0 -0.87462045068E+02 -0.70123728871E+02 -0.62136205319E+03  0.63139349682E+03  0.00000000000E+00 0. -1.
       -3    1    4    4    0  502 -0.17782776921E+02 -0.20868636609E+02 -0.35124285966E+02  0.44558305775E+02  0.00000000000E+00 0.  1.
<mgrwt>
<rscale>  0 0.15125062E+03</rscale>
<asrwt>0</asrwt>
<pdfrwt beam="1">  1        2 0.12074448E+00 0.16332472E+03</pdfrwt>
<pdfrwt beam="2">  1       -1 0.29510214E-01 0.16332472E+03</pdfrwt>
<totfact> 0.44323347E+02</totfact>
</mgrwt>
</event>
<event>
11   0  0.7688500E-08  0.1086141E+03  0.7546771E-02  0.1272486E+00
       -1   -1    0    0    0  501  0.00000000000E+00  0.00000000000E+00  0.33077042699E+03  0.33077042699E+03  0.00000000000E+00 0.  1.
        2   -1    0    0  501    0  0.00000000000E+00  0.00000000000E+00 -0.12174891101E+03  0.12174891101E+03  0.00000000000E+00 0. -1.
       23    2    1    2    0    0  0.62273561567E+01  0.80750336497E+02  0.13250668904E+03  0.17764691480E+03  0.86261271088E+02 0.  0.
       24    2    1    2    0    0 -0.12918402741E+02 -0.41031342704E+02 -0.57429611469E+02  0.10729289697E+03  0.79769350342E+02 0.  0.
       23    2    1    2    0    0  0.66910465839E+01 -0.39718993793E+02  0.13394443842E+03  0.16757952622E+03  0.92300685018E+02 0.  0.
      -11    1    3    3    0    0 -0.39007236518E+02  0.48875959105E+02  0.78020560225E+02  0.99988157784E+02  0.00000000000E+00 0.  1.
       11    1    3    3    0    0  0.45234592675E+02  0.31874377392E+02  0.54486128811E+02  0.77658757017E+02  0.00000000000E+00 0. -1.
      -13    1    5    5    0    0 -0.82989863509E+01  0.27683316930E+02  0.58860291946E+02  0.65572655724E+02  0.00000000000E+00 0.  1.
       13    1    5    5    0    0  0.14990032935E+02 -0.67402310723E+02  0.75084146470E+02  0.10200687050E+03  0.00000000000E+00 0. -1.
        2    1    4    4  502    0 -0.11559673012E+02 -0.64108552238E+02 -0.52479105210E+02  0.83651592895E+02  0.00000000000E+00 0. -1.
       -1    1    4    4    0  502 -0.13587297282E+01  0.23077209534E+02 -0.49505062593E+01  0.23641304079E+02  0.00000000000E+00 0.  1.
<mgrwt>
<rscale>  0 0.10380815E+03</rscale>
<asrwt>0</asrwt>
<pdfrwt beam="1">  1        2 0.18730602E-01 0.10861412E+03</pdfrwt>
<pdfrwt beam="2">  1       -1 0.50887758E-01 0.10861412E+03</pdfrwt>
<totfact> 0.13271780E+03</totfact>
</mgrwt>
</event>
<event>
10   0  0.7688500E-08  0.2002372E+03  0.7546771E-02  0.1244152E+00
        2   -1    0    0  502    0  0.00000000000E+00  0.00000000000E+00  0.96198976702E+03  0.96198976702E+03  0.00000000000E+00 0. -1.
        1   -1    0    0  501    0  0.00000000000E+00  0.00000000000E+00 -0.98501206670E+03  0.98501206670E+03  0.00000000000E+00 0. -1.
       23    2    1    2    0    0 -0.13712573095E+02 -0.43388543156E+02  0.13381573468E+00  0.10141826502E+03  0.90636892241E+02 0.  0.
       23    2    1    2    0    0 -0.24441336268E+03  0.43493204730E+02  0.54220212069E+02  0.27002244848E+03  0.91338603952E+02 0.  0.
      -11    1    4    4    0    0 -0.24227977554E+03  0.42439449486E+02  0.68672765079E+02  0.25537530259E+03  0.00000000000E+00 0.  1.
       11    1    4    4    0    0 -0.21335871375E+01  0.10537552441E+01 -0.14452553010E+02  0.14647145889E+02  0.00000000000E+00 0. -1.
      -13    1    3    3    0    0 -0.51301500187E+02 -0.28829661752E+02  0.10547434194E+02  0.59784962041E+02  0.00000000000E+00 0.  1.
       13    1    3    3    0    0  0.37588927092E+02 -0.14558881405E+02 -0.10413618459E+02  0.41633302980E+02  0.00000000000E+00 0. -1.
        2    1    1    2  501    0  0.65516426700E+02  0.27755418232E+02 -0.81224697892E+03  0.81535754132E+03  0.00000000000E+00 0. -1.
        1    1    1    2  502    0  0.19260950907E+03 -0.27860079805E+02  0.73487065144E+03  0.76020357891E+03  0.00000000000E+00 0. -1.
<mgrwt>
<rscale>  0 0.11936289E+03</rscale>
<asrwt>0</asrwt>
<pdfrwt beam="1">  1        2 0.14799843E+00 0.20023720E+03</pdfrwt>
<pdfrwt beam="2">  1        1 0.15154032E+00 0.71153112E+02</pdfrwt>
<totfact> 0.68981844E+01</totfact>
</mgrwt>
</event>
<event>
10   0  0.7688500E-08  0.1051179E+03  0.7546771E-02  0.1318285E+00
        1   -1    0    0  502    0  0.00000000000E+00  0.00000000000E+00  0.68527949280E+03  0.68527949280E+03  0.00000000000E+00 0. -1.
       -3   -1    0    0    0  501  0.00000000000E+00  0.00000000000E+00 -0.27915359574E+03  0.27915359574E+03  0.00000000000E+00 0.  1.
       23    2    1    2    0    0  0.22198977838E+02  0.49790528246E+02  0.19653955382E+03  0.22306920071E+03  0.90333718903E+02 0.  0.
       23    2    1    2    0    0 -0.33358356086E+02 -0.82835374631E+01  0.15217823520E+02  0.96417592188E+02  0.88788360819E+02 0.  0.
      -11    1    3    3    0    0 -0.93480323364E+01  0.49795250358E+02  0.18089470274E+03  0.18785591858E+03  0.00000000000E+00 0. -1.
       11    1    3    3    0    0  0.31547010175E+02 -0.47221118144E-02  0.15644851083E+02  0.35213282134E+02  0.00000000000E+00 0.  1.
      -13    1    4    4    0    0 -0.59800430407E+02 -0.22148663291E+02  0.20964453925E+01  0.63804779176E+02  0.00000000000E+00 0.  1.
       13    1    4    4    0    0  0.26442074320E+02  0.13865125828E+02  0.13121378128E+02  0.32612813012E+02  0.00000000000E+00 0. -1.
        2    1    1    2  502    0  0.31761816625E+01  0.66919011782E+02  0.40361712147E+03  0.40913936869E+03  0.00000000000E+00 0. -1.
       -4    1    1    2    0  501  0.79831965857E+01 -0.10842600256E+03 -0.20924860175E+03  0.23580692695E+03  0.00000000000E+00 0.  1.
<mgrwt>
<rscale>  0 0.83918444E+02</rscale>
<asrwt>0</asrwt>
<pdfrwt beam="1">  1        1 0.10542761E+00 0.66994345E+02</pdfrwt>
<pdfrwt beam="2">  1       -3 0.42946707E-01 0.10511791E+03</pdfrwt>
<totfact> 0.87480277E+01</totfact>
</mgrwt>
</event>
<event>
11   0  0.7688500E-08  0.1304870E+03  0.7546771E-02  0.1239728E+00
       -1   -1    0    0    0  501  0.00000000000E+00  0.00000000000E+00  0.24223800423E+03  0.24223800423E+03  0.00000000000E+00 0.  1.
        1   -1    0    0  501    0  0.00000000000E+00  0.00000000000E+00 -0.14963927212E+03  0.14963927212E+03  0.00000000000E+00 0. -1.
       23    2    1    2    0    0 -0.13548587976E+02 -0.40615627081E+02  0.31276907651E+02  0.10398635339E+03  0.89452352339E+02 0.  0.
       23    2    1    2    0    0 -0.80820612490E+02  0.60966497247E+02  0.79150853871E+02  0.15678364184E+03  0.89818525320E+02 0.  0.
       23    2    1    2    0    0  0.94369200466E+02 -0.20350870166E+02 -0.17829029412E+02  0.13110728111E+03  0.86899602751E+02 0.  0.
      -11    1    4    4    0    0 -0.85545217169E+02  0.60876943447E+02  0.94169839184E+02  0.14103880684E+03  0.00000000000E+00 0.  1.
       11    1    4    4    0    0  0.47246046784E+01  0.89553799498E-01 -0.15018985313E+02  0.15744834997E+02  0.00000000000E+00 0. -1.
      -13    1    5    5    0    0  0.67399535968E+02  0.28730613082E+02 -0.37605011176E+01  0.73364071216E+02  0.00000000000E+00 0. -1.
       13    1    5    5    0    0  0.26969664498E+02 -0.49081483248E+02 -0.14068528295E+02  0.57743209898E+02  0.00000000000E+00 0.  1.
        1    1    3    3  502    0  0.30045538517E+02 -0.41597953068E+02  0.31817538876E+02  0.60377809370E+02  0.00000000000E+00 0. -1.
       -1    1    3    3    0  502 -0.43594126493E+02  0.98232598715E+00 -0.54063122451E+00  0.43608544016E+02  0.00000000000E+00 0.  1.
<mgrwt>
<rscale>  0 0.12206581E+03</rscale>
<asrwt>0</asrwt>
<pdfrwt beam="1">  1        1 0.23021426E-01 0.13048699E+03</pdfrwt>
<pdfrwt beam="2">  1       -1 0.37267385E-01 0.13048699E+03</pdfrwt>
<totfact> 0.14606155E+03</totfact>
</mgrwt>
</event>
<event>
10   0  0.7688500E-08  0.6961846E+02  0.7546771E-02  0.1468688E+00
       -2   -1    0    0    0  501  0.00000000000E+00  0.00000000000E+00  0.47610036764E+03  0.47610036764E+03  0.00000000000E+00 0.  1.
       -3   -1    0    0    0  502  0.00000000000E+00  0.00000000000E+00 -0.29926118361E+03  0.29926118361E+03  0.00000000000E+00 0.  1.
       23    2    1    2    0    0 -0.94033410523E+02 -0.91124959615E+02  0.24429251940E+03  0.28981498369E+03  0.84663151250E+02 0.  0.
       23    2    1    2    0    0  0.23147641506E+02  0.16046211971E+03  0.34084238612E+02  0.18840958999E+03  0.89735907570E+02 0.  0.
      -11    1    4    4    0    0  0.16183676406E+02  0.15324714283E+03  0.12775461739E+01  0.15410460828E+03  0.00000000000E+00 0.  1.
       11    1    4    4    0    0  0.69639650997E+01  0.72149768794E+01  0.32806692438E+02  0.34304981709E+02  0.00000000000E+00 0. -1.
      -13    1    3    3    0    0 -0.87490343048E+02 -0.81073145535E+02  0.13614811372E+03  0.18100752449E+03  0.00000000000E+00 0.  1.
       13    1    3    3    0    0 -0.65430674755E+01 -0.10051814081E+02  0.10814440567E+03  0.10880745920E+03  0.00000000000E+00 0. -1.
       -4    1    1    2    0  502  0.46997806364E+02 -0.50718800566E+02 -0.19076474164E+03  0.20290977598E+03  0.00000000000E+00 0.  1.
       -1    1    1    2    0  501  0.23887962654E+02 -0.18618359530E+02  0.89227167666E+02  0.94227201598E+02  0.00000000000E+00 0.  1.
<mgrwt>
<rscale>  0 0.45918475E+02</rscale>
<asrwt>0</asrwt>
<pdfrwt beam="1">  1       -2 0.73246210E-01 0.30286599E+02</pdfrwt>
<pdfrwt beam="2">  1       -3 0.46040182E-01 0.69618460E+02</pdfrwt>
<totfact> 0.31873906E+01</totfact>
</mgrwt>
</event>
<event>
10   0  0.7688500E-08  0.4080450E+02  0.7546771E-02  0.1575531E+00
        1   -1    0    0  501    0  0.00000000000E+00  0.00000000000E+00  0.36533072333E+03  0.36533072333E+03  0.00000000000E+00 0. -1.
        2   -1    0    0  502    0  0.00000000000E+00  0.00000000000E+00 -0.74966247852E+03  0.74966247852E+03  0.00000000000E+00 0. -1.
       23    2    1    2    0    0  0.97894662387E+01  0.38592333584E+01 -0.60454716874E+03  0.61231852711E+03  0.96674567859E+02 0.  0.
       23    2    1    2    0    0  0.75967281320E+01  0.31085909825E+01  0.25794509978E+02  0.94098210397E+02  0.90120712596E+02 0.  0.
      -11    1    3    3    0    0  0.23180144263E+01 -0.44688932194E+02 -0.20926090753E+03  0.21399205890E+03  0.00000000000E+00 0.  1.
       11    1    3    3    0    0  0.74714518124E+01  0.48548165552E+02 -0.39528626121E+03  0.39832646821E+03  0.00000000000E+00 0. -1.
      -13    1    4    4    0    0  0.37661456780E+02 -0.12197936284E+02  0.41088587429E+02  0.57056524546E+02  0.00000000000E+00 0.  1.
       13    1    4    4    0    0 -0.30064728648E+02  0.15306527267E+02 -0.15294077451E+02  0.37041685851E+02  0.00000000000E+00 0. -1.
        2    1    1    2  501    0  0.24876463815E+02 -0.47275424162E+01  0.29675644310E+03  0.29783481098E+03  0.00000000000E+00 0. -1.
        1    1    1    2  502    0 -0.42262658186E+02 -0.22402819247E+01 -0.10233553953E+03  0.11074165337E+03  0.00000000000E+00 0. -1.
<mgrwt>
<rscale>  0 0.32144035E+02</rscale>
<asrwt>0</asrwt>
<pdfrwt beam="1">  1        2 0.11533269E+00 0.40804500E+02</pdfrwt>
<pdfrwt beam="2">  1        1 0.56204727E-01 0.25321692E+02</pdfrwt>
<totfact> 0.38847703E+02</totfact>
</mgrwt>
</event>
<event>
11   0  0.7688500E-08  0.1377572E+03  0.7546771E-02  0.1231493E+00
        2   -1    0    0  501    0  0.00000000000E+00  0.00000000000E+00  0.84671624229E+03  0.84671624229E+03  0.00000000000E+00 0. -1.
       -1   -1    0    0    0  501  0.00000000000E+00  0.00000000000E+00 -0.29274310499E+03  0.29274310499E+03  0.00000000000E+00 0.  1.
       23    2    1    2    0    0 -0.58884456815E+01  0.61227584683E+01 -0.40561874614E+02  0.10654518587E+03  0.98155229087E+02 0.  0.
       24    2    1    2    0    0 -0.26846859934E+02  0.10511656587E+03  0.78291031138E+03  0.79444390051E+03  0.80139310549E+02 0.  0.
       23    2    1    2    0    0  0.32735305615E+02 -0.11123932434E+03 -0.18837529946E+03  0.23847026090E+03  0.89089979074E+02 0.  0.
      -11    1    3    3    0    0 -0.31402612599E+02 -0.36822971892E+02 -0.16793818991E+02  0.51225849854E+02  0.00000000000E+00 0.  1.
       11    1    3    3    0    0  0.25514166917E+02  0.42945730360E+02 -0.23768055623E+02  0.55319336021E+02  0.00000000000E+00 0. -1.
      -13    1    5    5    0    0 -0.47221332416E+01 -0.57560800775E+02 -0.25881083562E+02  0.63288030579E+02  0.00000000000E+00 0.  1.
       13    1    5    5    0    0  0.37457438857E+02 -0.53678523561E+02 -0.16249421590E+03  0.17518223032E+03  0.00000000000E+00 0. -1.
        4    1    4    4  502    0 -0.27819456561E+02  0.16313069838E+02  0.40314064871E+03  0.40442851167E+03  0.00000000000E+00 0. -1.
       -3    1    4    4    0  502  0.97259662701E+00  0.88803496030E+02  0.37976966266E+03  0.39001538884E+03  0.00000000000E+00 0.  1.
<mgrwt>
<rscale>  0 0.12731662E+03</rscale>
<asrwt>0</asrwt>
<pdfrwt beam="1">  1        2 0.13026404E+00 0.13775718E+03</pdfrwt>
<pdfrwt beam="2">  1       -1 0.45037401E-01 0.13775718E+03</pdfrwt>
<totfact> 0.19469021E+02</totfact>
</mgrwt>
</event>
<event>
10   0  0.7688500E-08  0.1282161E+03  0.7546771E-02  0.1253500E+00
       -1   -1    0    0    0  501  0.00000000000E+00  0.00000000000E+00  0.11100148850E+03  0.11100148850E+03  0.00000000000E+00 0.  1.
        1   -1    0    0  502    0  0.00000000000E+00  0.00000000000E+00 -0.13332346946E+04  0.13332346946E+04  0.00000000000E+00 0. -1.
       23    2    1    2    0    0  0.23860437896E+02  0.79320795094E+02 -0.35966570779E+03  0.38059831236E+03  0.92922252329E+02 0.  0.
       23    2    1    2    0    0  0.99803464024E+02 -0.42702381491E+02 -0.53732392558E+03  0.55497366487E+03  0.86571027934E+02 0.  0.
      -11    1    4    4    0    0 -0.11112894654E+02 -0.12147168390E+02 -0.25310534657E+02  0.30193928067E+02  0.00000000000E+00 0.  1.
       11    1    4    4    0    0  0.11091635868E+03 -0.30555213102E+02 -0.51201339093E+03  0.52477973680E+03  0.00000000000E+00 0. -1.
      -13    1    3    3    0    0  0.18610956620E+02 -0.12192377941E+02 -0.15176386523E+03  0.15338608990E+03  0.00000000000E+00 0.  1.
       13    1    3    3    0    0  0.52494812755E+01  0.91513173035E+02 -0.20790184256E+03  0.22721222246E+03  0.00000000000E+00 0. -1.
        2    1    1    2  502    0 -0.59213174075E+02  0.82063398275E+02 -0.35604219229E+03  0.37014408548E+03  0.00000000000E+00 0. -1.
       -2    1    1    2    0  501 -0.64450727845E+02 -0.11868181188E+03  0.30798619565E+02  0.13852012041E+03  0.00000000000E+00 0.  1.
<mgrwt>
<rscale>  0 0.11390757E+03</rscale>
<asrwt>0</asrwt>
<pdfrwt beam="1">  1        1 0.20511303E+00 0.10119586E+03</pdfrwt>
<pdfrwt beam="2">  1       -1 0.17077152E-01 0.12821607E+03</pdfrwt>
<totfact> 0.25676839E+02</totfact>
</mgrwt>
</event>
<event>
10   0  0.7688500E-08  0.1062403E+03  0.7546771E-02  0.1292027E+00
       -2   -1    0    0    0  501  0.00000000000E+00  0.00000000000E+00  0.62183797072E+03  0.62183797072E+03  0.00000000000E+00 0.  1.
        2   -1    0    0  502    0  0.00000000000E+00  0.00000000000E+00 -0.14246280317E+04  0.14246280317E+04  0.00000000000E+00 0. -1.
       23    2    1    2    0    0 -0.18210206531E+02  0.71173987128E+01  0.19733192480E+02  0.94416852603E+02  0.90237875550E+02 0.  0.
       23    2    1    2    0    0 -0.48217076318E+02 -0.14639664972E+02 -0.15732359624E+03  0.19034275786E+03  0.94553927982E+02 0.  0.
      -11    1    3    3    0    0 -0.41567092358E+02  0.33177191499E+02 -0.20011197712E+01  0.53221740701E+02  0.00000000000E+00 0.  1.
       11    1    3    3    0    0  0.23356885827E+02 -0.26059792786E+02  0.21734312251E+02  0.41195111902E+02  0.00000000000E+00 0. -1.
      -13    1    4    4    0    0  0.13262732657E+02  0.38934973738E+01  0.58347059892E+01  0.15003439382E+02  0.00000000000E+00 0.  1.
       13    1    4    4    0    0 -0.61479808975E+02 -0.18533162345E+02 -0.16315830222E+03  0.17533931847E+03  0.00000000000E+00 0. -1.
        1    1    1    2  502    0  0.77146733043E+02 -0.76069999019E+02 -0.12077750484E+04  0.12126247691E+04  0.00000000000E+00 0. -1.
       -1    1    1    2    0  501 -0.10719450194E+02  0.83592265278E+02  0.54257539118E+03  0.54908162284E+03  0.00000000000E+00 0.  1.
<mgrwt>
<rscale>  0 0.94623415E+02</rscale>
<asrwt>0</asrwt>
<pdfrwt beam="1">  1        2 0.21917354E+00 0.10624032E+03</pdfrwt>
<pdfrwt beam="2">  1       -2 0.95667380E-01 0.84276767E+02</pdfrwt>
<totfact> 0.16029020E+01</totfact>
</mgrwt>
</event>
<event>
10   0  0.7688500E-08  0.9353695E+02  0.7546771E-02  0.1320529E+00
        1   -1    0    0  501    0  0.00000000000E+00  0.00000000000E+00  0.81901313350E+03  0.81901313350E+03  0.00000000000E+00 0. -1.
        2   -1    0    0  502    0  0.00000000000E+00  0.00000000000E+00 -0.14248132528E+04  0.14248132528E+04  0.00000000000E+00 0. -1.
       23    2    1    2    0    0  0.62949888222E+02 -0.12343306999E+03 -0.58738466227E+03  0.61059943198E+03  0.92803629623E+02 0.  0.
       23    2    1    2    0    0 -0.50288709733E+02  0.23394772813E+02 -0.27692890992E+03  0.29646076819E+03  0.90128220909E+02 0.  0.
      -11    1    3    3    0    0  0.69670954508E+02 -0.10026723670E+03 -0.32617105622E+03  0.34827448740E+03  0.00000000000E+00 0.  1.
       11    1    3    3    0    0 -0.67210662859E+01 -0.23165833288E+02 -0.26121360605E+03  0.26232494459E+03  0.00000000000E+00 0. -1.
      -13    1    4    4    0    0 -0.16957501910E+02 -0.33167755704E+02 -0.13565874464E+03  0.14068031805E+03  0.00000000000E+00 0.  1.
       13    1    4    4    0    0 -0.33331207823E+02  0.56562528517E+02 -0.14127016528E+03  0.15578045014E+03  0.00000000000E+00 0. -1.
        2    1    1    2  501    0  0.62605690045E+02  0.39064539224E+02  0.79155880202E+03  0.79499109913E+03  0.00000000000E+00 0. -1.
        1    1    1    2  502    0 -0.75266868534E+02  0.60973757949E+02 -0.53304534914E+03  0.54177508700E+03  0.00000000000E+00 0. -1.
<mgrwt>
<rscale>  0 0.83080911E+02</rscale>
<asrwt>0</asrwt>
<pdfrwt beam="1">  1        2 0.21920204E+00 0.93536947E+02</pdfrwt>
<pdfrwt beam="2">  1        1 0.12600202E+00 0.73793703E+02</pdfrwt>
<totfact> 0.52928099E+01</totfact>
</mgrwt>
</event>
<event>
10   0  0.7688500E-08  0.9812876E+02  0.7546771E-02  0.1319861E+00
        1   -1    0    0  501    0  0.00000000000E+00  0.00000000000E+00  0.96639717209E+03  0.96639717209E+03  0.00000000000E+00 0. -1.
        2   -1    0    0  502    0  0.00000000000E+00  0.00000000000E+00 -0.13043547007E+04  0.13043547007E+04  0.00000000000E+00 0. -1.
       23    2    1    2    0    0  0.84665476872E+02 -0.10743849223E+03 -0.32742517202E+03  0.36643710328E+03  0.91420100671E+02 0.  0.
       23    2    1    2    0    0 -0.10303497781E+03  0.79329693468E+02  0.10205001446E+03  0.18846980403E+03  0.90538691519E+02 0.  0.
      -11    1    4    4    0    0 -0.13898988428E+02  0.25558293830E+02 -0.14241607005E+02  0.32391845160E+02  0.00000000000E+00 0. -1.
       11    1    4    4    0    0 -0.89135989385E+02  0.53771399638E+02  0.11629162147E+03  0.15607795887E+03  0.00000000000E+00 0.  1.
      -13    1    3    3    0    0  0.67141597465E+02 -0.67575626903E+02 -0.30050675354E+03  0.31524398232E+03  0.00000000000E+00 0. -1.
       13    1    3    3    0    0  0.17523879407E+02 -0.39862865323E+02 -0.26918418474E+02  0.51193120967E+02  0.00000000000E+00 0.  1.
        2    1    1    2  501    0 -0.67204422410E+02 -0.22152897205E+02  0.79736650386E+03  0.80050017284E+03  0.00000000000E+00 0. -1.
        1    1    1    2  502    0  0.85573923351E+02  0.50261695964E+02 -0.90994887488E+03  0.91534479260E+03  0.00000000000E+00 0. -1.
<mgrwt>
<rscale>  0 0.83329078E+02</rscale>
<asrwt>0</asrwt>
<pdfrwt beam="1">  1        2 0.20066995E+00 0.98128762E+02</pdfrwt>
<pdfrwt beam="2">  1        1 0.14867649E+00 0.70761467E+02</pdfrwt>
<totfact> 0.47353380E+01</totfact>
</mgrwt>
</event>
<event>
10   0  0.7688500E-08  0.2629351E+03  0.7546771E-02  0.1187640E+00
        1   -1    0    0  501    0  0.00000000000E+00  0.00000000000E+00  0.26880834341E+04  0.26880834341E+04  0.00000000000E+00 0. -1.
        2   -1    0    0  502    0  0.00000000000E+00  0.00000000000E+00 -0.17942519875E+04  0.17942519875E+04  0.00000000000E+00 0. -1.
       23    2    1    2    0    0  0.20488053930E+02  0.41617634784E+01  0.79012350595E+02  0.12403268705E+03  0.93295633779E+02 0.  0.
       23    2    1    2    0    0 -0.60263853721E+02 -0.19491415049E+03 -0.46691061574E+03  0.51768471382E+03  0.91480499045E+02 0.  0.
      -11    1    3    3    0    0  0.14323570694E+02  0.46944577108E+02  0.57973607461E+02  0.75959839122E+02  0.00000000000E+00 0.  1.
       11    1    3    3    0    0  0.61644832362E+01 -0.42782813630E+02  0.21038743133E+02  0.48072847932E+02  0.00000000000E+00 0. -1.
      -13    1    4    4    0    0 -0.51569547729E+02 -0.17766322625E+03 -0.46213160992E+03  0.49778435602E+03  0.00000000000E+00 0. -1.
       13    1    4    4    0    0 -0.86943059921E+01 -0.17250924241E+02 -0.47790058219E+01  0.19900357799E+02  0.00000000000E+00 0.  1.
        2    1    1    2  501    0 -0.44679568187E+02 -0.10257868119E+03  0.25417193058E+04  0.25441807481E+04  0.00000000000E+00 0. -1.
        1    1    1    2  502    0  0.84455367978E+02  0.29333106820E+03 -0.12599895941E+04  0.12964372727E+04  0.00000000000E+00 0. -1.
<mgrwt>
<rscale>  0 0.16093978E+03</rscale>
<asrwt>0</asrwt>
<pdfrwt beam="1">  1        2 0.27603877E+00 0.26293509E+03</pdfrwt>
<pdfrwt beam="2">  1        1 0.41355130E+00 0.98509525E+02</pdfrwt>
<totfact> 0.18185376E+00</totfact>
</mgrwt>
</event>
<event>
11   0  0.7688500E-08  0.1582051E+03  0.7546771E-02  0.1219455E+00
       -2   -1    0    0    0  501  0.00000000000E+00  0.00000000000E+00  0.95255679433E+02  0.95255679433E+02  0.00000000000E+00 0.  1.
        1   -1    0    0  501    0  0.00000000000E+00  0.00000000000E+00 -0.48058098728E+03  0.48058098728E+03  0.00000000000E+00 0. -1.
       23    2    1    2    0    0  0.13079388299E+03  0.44787208670E+01 -0.25255600758E+03  0.29897654933E+03  0.92061616949E+02 0.  0.
       23    2    1    2    0    0 -0.12026316055E+03  0.20694984979E+01 -0.58130413605E+02  0.16390646033E+03  0.94966689648E+02 0.  0.
      -24    2    1    2    0    0 -0.10530722437E+02 -0.65482193650E+01 -0.74638886657E+02  0.11295365705E+03  0.83867693108E+02 0.  0.
      -11    1    4    4    0    0  0.12493318194E+02  0.27527944354E+01  0.85062823636E+01  0.15362868103E+02  0.00000000000E+00 0. -1.
       11    1    4    4    0    0 -0.13275647875E+03 -0.68329593749E+00 -0.66636695968E+02  0.14854359223E+03  0.00000000000E+00 0.  1.
      -13    1    3    3    0    0  0.23789276287E+02 -0.22415337237E+02 -0.12894079064E+02  0.35137363086E+02  0.00000000000E+00 0.  1.
       13    1    3    3    0    0  0.10700460670E+03  0.26894058104E+02 -0.23966192852E+03  0.26383918625E+03  0.00000000000E+00 0. -1.
        1    1    5    5  502    0  0.35639935580E+02  0.11483595048E+01 -0.45534784050E+02  0.57835458814E+02  0.00000000000E+00 0. -1.
       -2    1    5    5    0  502 -0.46170658017E+02 -0.76965788697E+01 -0.29104102607E+02  0.55118198234E+02  0.00000000000E+00 0.  1.
<mgrwt>
<rscale>  0 0.13554306E+03</rscale>
<asrwt>0</asrwt>
<pdfrwt beam="1">  1        1 0.73935537E-01 0.15820509E+03</pdfrwt>
<pdfrwt beam="2">  1       -2 0.14654720E-01 0.15820509E+03</pdfrwt>
<totfact> 0.14730559E+03</totfact>
</mgrwt>
</event>
<event>
10   0  0.7688500E-08  0.5381204E+02  0.7546771E-02  0.1459346E+00
        2   -1    0    0  502    0  0.00000000000E+00  0.00000000000E+00  0.27597337830E+03  0.27597337830E+03  0.00000000000E+00 0. -1.
        1   -1    0    0  501    0  0.00000000000E+00  0.00000000000E+00 -0.45018920961E+03  0.45018920961E+03  0.00000000000E+00 0. -1.
       23    2    1    2    0    0 -0.26018449675E+02 -0.10275705730E+03  0.22105971338E+03  0.26162259896E+03  0.91340105430E+02 0.  0.
       23    2    1    2    0    0  0.12225108390E+02  0.37919284236E+02 -0.22027116865E+03  0.24204277131E+03  0.92076001274E+02 0.  0.
      -11    1    3    3    0    0 -0.27633365892E+02 -0.71956587502E+02  0.60118519761E+02  0.97752697220E+02  0.00000000000E+00 0.  1.
       11    1    3    3    0    0  0.16149162168E+01 -0.30800469799E+02  0.16094119362E+03  0.16386990174E+03  0.00000000000E+00 0. -1.
      -13    1    4    4    0    0  0.38701354176E+02 -0.13279168450E+02 -0.69780988804E+02  0.80892011523E+02  0.00000000000E+00 0.  1.
       13    1    4    4    0    0 -0.26476245786E+02  0.51198452685E+02 -0.15049017985E+03  0.16115075979E+03  0.00000000000E+00 0. -1.
        2    1    1    2  501    0 -0.24559206128E+02  0.47920101713E+02 -0.17227066575E+03  0.18049009122E+03  0.00000000000E+00 0. -1.
        1    1    1    2  502    0  0.38352547413E+02  0.16917671353E+02 -0.27337102851E+01  0.42007126407E+02  0.00000000000E+00 0. -1.
<mgrwt>
<rscale>  0 0.47494181E+02</rscale>
<asrwt>0</asrwt>
<pdfrwt beam="1">  1        2 0.42457443E-01 0.41918081E+02</pdfrwt>
<pdfrwt beam="2">  1        1 0.69259878E-01 0.53812035E+02</pdfrwt>
<totfact> 0.85486652E+02</totfact>
</mgrwt>
</event>
<event>
11   0  0.7688500E-08  0.9415474E+02  0.7546771E-02  0.1296238E+00
       -2   -1    0    0    0  501  0.00000000000E+00  0.00000000000E+00  0.14278045402E+03  0.14278045402E+03  0.00000000000E+00 0.  1.
        2   -1    0    0  501    0  0.00000000000E+00  0.00000000000E+00 -0.33141888635E+03  0.33141888635E+03  0.00000000000E+00 0. -1.
       23    2    1    2    0    0 -0.19728996391E+02 -0.64831903314E+01 -0.95647825675E+02  0.12990721768E+03  0.85417290947E+02 0.  0.
       23    2    1    2    0    0  0.43986681916E+01 -0.24367286463E+02  0.94538800172E+02  0.13269693871E+03  0.89765137299E+02 0.  0.
       23    2    1    2    0    0  0.15330328200E+02  0.30850476795E+02 -0.18752940684E+03  0.21159518398E+03  0.91752234712E+02 0.  0.
      -11    1    4    4    0    0 -0.24771626428E+02 -0.37769939944E+02  0.16115099263E+02  0.47957254545E+02  0.00000000000E+00 0.  1.
       11    1    4    4    0    0  0.29170294619E+02  0.13402653481E+02  0.78423700910E+02  0.84739684168E+02  0.00000000000E+00 0. -1.
      -13    1    5    5    0    0 -0.15262277946E+02 -0.27289148366E+02 -0.46769294385E+02  0.56258347327E+02  0.00000000000E+00 0. -1.
       13    1    5    5    0    0  0.30592606146E+02  0.58139625161E+02 -0.14076011245E+03  0.15533683665E+03  0.00000000000E+00 0.  1.
        1    1    3    3  502    0  0.13667309479E+02 -0.37265906959E+02 -0.28598170267E+02  0.48922372310E+02  0.00000000000E+00 0. -1.
       -1    1    3    3    0  502 -0.33396305870E+02  0.30782716627E+02 -0.67049655408E+02  0.80984845366E+02  0.00000000000E+00 0.  1.
<mgrwt>
<rscale>  0 0.92787602E+02</rscale>
<asrwt>0</asrwt>
<pdfrwt beam="1">  1        2 0.50987521E-01 0.94154736E+02</pdfrwt>
<pdfrwt beam="2">  1       -2 0.21966224E-01 0.94154736E+02</pdfrwt>
<totfact> 0.16961598E+03</totfact>
</mgrwt>
</event>
<event>
10   0  0.7688500E-08  0.6863939E+02  0.7546771E-02  0.1399543E+00
        1   -1    0    0  501    0  0.00000000000E+00  0.00000000000E+00  0.18846870852E+04  0.18846870852E+04  0.00000000000E+00 0. -1.
        2   -1    0    0  502    0  0.00000000000E+00  0.00000000000E+00 -0.11204836304E+04  0.11204836304E+04  0.00000000000E+00 0. -1.
       23    2    1    2    0    0 -0.44269169262E+02  0.26138097412E+01  0.75388782812E+03  0.76047831569E+03  0.89519941377E+02 0.  0.
       23    2    1    2    0    0  0.30971250722E+01  0.69978266364E+00  0.39118502062E+03  0.40171397233E+03  0.91314365398E+02 0.  0.
      -11    1    4    4    0    0 -0.37233282154E+02  0.17465331093E+02  0.11578243479E+03  0.12286955399E+03  0.00000000000E+00 0.  1.
       11    1    4    4    0    0  0.40330407226E+02 -0.16765548430E+02  0.27540258583E+03  0.27884441834E+03  0.00000000000E+00 0. -1.
      -13    1    3    3    0    0  0.15869649056E+02  0.57244120940E+01  0.32837205515E+02  0.36917431127E+02  0.00000000000E+00 0.  1.
       13    1    3    3    0    0 -0.60138818318E+02 -0.31106023527E+01  0.72105062260E+03  0.72356088456E+03  0.00000000000E+00 0. -1.
        2    1    1    2  501    0  0.56074058653E+02 -0.52861898392E+02  0.72841896882E+03  0.73248404385E+03  0.00000000000E+00 0. -1.
        1    1    1    2  502    0 -0.14902014464E+02  0.49548305987E+02 -0.11092883627E+04  0.11104943837E+04  0.00000000000E+00 0. -1.
<mgrwt>
<rscale>  0 0.59594070E+02</rscale>
<asrwt>0</asrwt>
<pdfrwt beam="1">  1        2 0.17238210E+00 0.51740745E+02</pdfrwt>
<pdfrwt beam="2">  1        1 0.28995186E+00 0.68639390E+02</pdfrwt>
<totfact> 0.15789606E+01</totfact>
</mgrwt>
</event>
<event>
10   0  0.7688500E-08  0.5315785E+03  0.7546771E-02  0.1060467E+00
        1   -1    0    0  501    0  0.00000000000E+00  0.00000000000E+00  0.25733282220E+03  0.25733282220E+03  0.00000000000E+00 0. -1.
        2   -1    0    0  502    0  0.00000000000E+00  0.00000000000E+00 -0.24189127561E+04  0.24189127561E+04  0.00000000000E+00 0. -1.
       23    2    1    2    0    0  0.41611177500E+02  0.30792165381E+02 -0.55602625061E+03  0.56605347266E+03  0.92583448898E+02 0.  0.
       23    2    1    2    0    0  0.48202489712E+00 -0.19518096498E+03 -0.52498823503E+03  0.56751243802E+03  0.91443310069E+02 0.  0.
      -11    1    4    4    0    0 -0.40806920568E+01  0.97032376338E+01 -0.22502084213E+02  0.24842476973E+02  0.00000000000E+00 0.  1.
       11    1    4    4    0    0  0.45627169539E+01 -0.20488420261E+03 -0.50248615081E+03  0.54266996105E+03  0.00000000000E+00 0. -1.
      -13    1    3    3    0    0 -0.24015218798E+02  0.26551460840E+02 -0.28113022204E+03  0.28340062200E+03  0.00000000000E+00 0.  1.
       13    1    3    3    0    0  0.65626396298E+02  0.42407045413E+01 -0.27489602857E+03  0.28265285066E+03  0.00000000000E+00 0. -1.
        2    1    1    2  501    0 -0.22388631779E+03 -0.42471510915E+03 -0.40534409452E+03  0.62834054636E+03  0.00000000000E+00 0. -1.
        1    1    1    2  502    0  0.18179311540E+03  0.58910390875E+03 -0.67522135374E+03  0.91433912125E+03  0.00000000000E+00 0. -1.
<mgrwt>
<rscale>  0 0.35528438E+03</rscale>
<asrwt>0</asrwt>
<pdfrwt beam="1">  1        2 0.37214042E+00 0.23745690E+03</pdfrwt>
<pdfrwt beam="2">  1        1 0.39589665E-01 0.53157852E+03</pdfrwt>
<totfact> 0.65640499E+01</totfact>
</mgrwt>
</event>
<event>
10   0  0.7688500E-08  0.1148039E+03  0.7546771E-02  0.1361991E+00
        2   -1    0    0  502    0  0.00000000000E+00  0.00000000000E+00  0.11807113239E+04  0.11807113239E+04  0.00000000000E+00 0. -1.
        1   -1    0    0  501    0  0.00000000000E+00  0.00000000000E+00 -0.59849351010E+02  0.59849351010E+02  0.00000000000E+00 0. -1.
       23    2    1    2    0    0  0.16846130969E+02 -0.34371403903E+01  0.19201051669E+03  0.21327986714E+03  0.91239559098E+02 0.  0.
       23    2    1    2    0    0 -0.65286258361E+02 -0.88025723525E+02  0.10276403830E+03  0.17636680376E+03  0.92379534361E+02 0.  0.
      -11    1    3    3    0    0  0.23452230313E+02 -0.37787589171E+02  0.49523213012E+02  0.66561682889E+02  0.00000000000E+00 0.  1.
       11    1    3    3    0    0 -0.66060993442E+01  0.34350448780E+02  0.14248730368E+03  0.14671818425E+03  0.00000000000E+00 0. -1.
      -13    1    4    4    0    0 -0.69160197427E+02 -0.10449984083E+03  0.82810572645E+02  0.15020299791E+03  0.00000000000E+00 0. -1.
       13    1    4    4    0    0  0.38739390659E+01  0.16474117302E+02  0.19953465655E+02  0.26163805847E+02  0.00000000000E+00 0.  1.
        2    1    1    2  501    0  0.66155107522E+02  0.53373659376E+02  0.14170726479E+03  0.16524586125E+03  0.00000000000E+00 0. -1.
        1    1    1    2  502    0 -0.17714980130E+02  0.38089204539E+02  0.68438015315E+03  0.68566814280E+03  0.00000000000E+00 0. -1.
<mgrwt>
<rscale>  0 0.69444915E+02</rscale>
<asrwt>0</asrwt>
<pdfrwt beam="1">  1        2 0.18164790E+00 0.42007238E+02</pdfrwt>
<pdfrwt beam="2">  1        1 0.92075925E-02 0.11480394E+03</pdfrwt>
<totfact> 0.21297245E+03</totfact>
</mgrwt>
</event>
<event>
10   0  0.7688500E-08  0.1650079E+03  0.7546771E-02  0.1329779E+00
        1   -1    0    0  501    0  0.00000000000E+00  0.00000000000E+00  0.57881805456E+03  0.57881805456E+03  0.00000000000E+00 0. -1.
        2   -1    0    0  502    0  0.00000000000E+00  0.00000000000E+00 -0.42007528375E+03  0.42007528375E+03  0.00000000000E+00 0. -1.
       23    2    1    2    0    0 -0.24426371543E+03 -0.37181485326E+03  0.16855867198E+03  0.48485566854E+03  0.93605264988E+02 0.  0.
       23    2    1    2    0    0  0.95386482521E+02  0.26553668255E+03 -0.41446924386E+02  0.29925928291E+03  0.90719127204E+02 0.  0.
      -11    1    3    3    0    0 -0.21945911805E+03 -0.26124020910E+03  0.12204524295E+03  0.36235865199E+03  0.00000000000E+00 0. -1.
       11    1    3    3    0    0 -0.24804597375E+02 -0.11057464416E+03  0.46513429033E+02  0.12249701655E+03  0.00000000000E+00 0.  1.
      -13    1    4    4    0    0  0.13167590382E+02  0.16747606268E+03 -0.31353966706E+02  0.17089379227E+03  0.00000000000E+00 0.  1.
       13    1    4    4    0    0  0.82218892139E+02  0.98060619870E+02 -0.10092957679E+02  0.12836549065E+03  0.00000000000E+00 0. -1.
        2    1    1    2  501    0  0.36857275564E+02 -0.11257792335E+02  0.35454184176E+02  0.52365979661E+02  0.00000000000E+00 0. -1.
        1    1    1    2  502    0  0.11201995734E+03  0.11753596305E+03 -0.38231609628E+01  0.16241240720E+03  0.00000000000E+00 0. -1.
<mgrwt>
<rscale>  0 0.79744058E+02</rscale>
<asrwt>0</asrwt>
<pdfrwt beam="1">  1        2 0.64626967E-01 0.16500788E+03</pdfrwt>
<pdfrwt beam="2">  1        1 0.89048931E-01 0.38538249E+02</pdfrwt>
<totfact> 0.40720658E+02</totfact>
</mgrwt>
</event>
<event>
10   0  0.7688500E-08  0.7639040E+02  0.7546771E-02  0.1381635E+00
        3   -1    0    0  501    0  0.00000000000E+00  0.00000000000E+00  0.18736629433E+03  0.18736629433E+03  0.00000000000E+00 0. -1.
        2   -1    0    0  502    0  0.00000000000E+00  0.00000000000E+00 -0.10881531503E+04  0.10881531503E+04  0.00000000000E+00 0. -1.
       23    2    1    2    0    0 -0.16263391509E+02 -0.32216492702E+02 -0.29314306879E+03  0.30858764624E+03  0.89392820308E+02 0.  0.
       23    2    1    2    0    0  0.76736314824E+02 -0.41537307525E+02 -0.30660563973E+03  0.33153004891E+03  0.91056823410E+02 0.  0.
      -11    1    4    4    0    0  0.59430045327E+02  0.14984059939E+02 -0.10650652001E+03  0.12288242814E+03  0.00000000000E+00 0.  1.
       11    1    4    4    0    0  0.17306269497E+02 -0.56521367465E+02 -0.20009911972E+03  0.20864762078E+03  0.00000000000E+00 0. -1.
      -13    1    3    3    0    0 -0.44686742885E+02 -0.37691401827E+02 -0.12529551259E+03  0.13826247588E+03  0.00000000000E+00 0. -1.
       13    1    3    3    0    0  0.28423351376E+02  0.54749091246E+01 -0.16784755620E+03  0.17032517035E+03  0.00000000000E+00 0.  1.
        4    1    1    2  501    0  0.12048611853E+02  0.52309865550E+02  0.15970933677E+03  0.16848905998E+03  0.00000000000E+00 0. -1.
        1    1    1    2  502    0 -0.72521535168E+02  0.21443934678E+02 -0.46074748427E+03  0.46691268955E+03  0.00000000000E+00 0. -1.
<mgrwt>
<rscale>  0 0.64035930E+02</rscale>
<asrwt>0</asrwt>
<pdfrwt beam="1">  1        2 0.16740818E+00 0.76390402E+02</pdfrwt>
<pdfrwt beam="2">  1        3 0.28825584E-01 0.53679522E+02</pdfrwt>
<totfact> 0.16136812E+02</totfact>
</mgrwt>
</event>
<event>
10   0  0.7688500E-08  0.2926702E+03  0.7546771E-02  0.1156815E+00
        1   -1    0    0  501    0  0.00000000000E+00  0.00000000000E+00  0.98585167361E+03  0.98585167361E+03  0.00000000000E+00 0. -1.
        2   -1    0    0  502    0  0.00000000000E+00  0.00000000000E+00 -0.16130880383E+04  0.16130880383E+04  0.00000000000E+00 0. -1.
       23    2    1    2    0    0 -0.47409868981E+03  0.13043766622E+03 -0.58692722357E+03  0.77352311716E+03  0.10986762291E+03 0.  0.
       23    2    1    2    0    0  0.15803069158E+03  0.61538250494E+02  0.58144037573E+02  0.20029620952E+03  0.89315097774E+02 0.  0.
      -11    1    3    3    0    0 -0.91247216543E+02  0.55428385745E+02 -0.77771069568E+02  0.13208595586E+03  0.00000000000E+00 0. -1.
       11    1    3    3    0    0 -0.38285147327E+03  0.75009280471E+02 -0.50915615400E+03  0.64143716130E+03  0.00000000000E+00 0.  1.
      -13    1    4    4    0    0  0.23589069282E+02  0.22106356413E+02 -0.21795821874E+02  0.38989652917E+02  0.00000000000E+00 0.  1.
       13    1    4    4    0    0  0.13444162229E+03  0.39431894081E+02  0.79939859447E+02  0.16130655661E+03  0.00000000000E+00 0. -1.
        2    1    1    2  501    0  0.31203168346E+03 -0.66297610775E+02  0.72502419348E+03  0.79209799003E+03  0.00000000000E+00 0. -1.
        1    1    1    2  502    0  0.40363147735E+01 -0.12567830593E+03 -0.82347737216E+03  0.83302239518E+03  0.00000000000E+00 0. -1.
<mgrwt>
<rscale>  0 0.19183655E+03</rscale>
<asrwt>0</asrwt>
<pdfrwt beam="1">  1        2 0.24816739E+00 0.12574310E+03</pdfrwt>
<pdfrwt beam="2">  1        1 0.15166949E+00 0.29267021E+03</pdfrwt>
<totfact> 0.28500326E+01</totfact>
</mgrwt>
</event>
<event>
11   0  0.7688500E-08  0.1059802E+03  0.7546771E-02  0.1281479E+00
        2   -1    0    0  501    0  0.00000000000E+00  0.00000000000E+00  0.22412974125E+03  0.22412974125E+03  0.00000000000E+00 0. -1.
       -1   -1    0    0    0  501  0.00000000000E+00  0.00000000000E+00 -0.19164950661E+03  0.19164950661E+03  0.00000000000E+00 0.  1.
       23    2    1    2    0    0  0.63304564562E+02 -0.84410015426E+01 -0.58793289147E+02  0.12431266304E+03  0.88984655648E+02 0.  0.
       24    2    1    2    0    0 -0.19240090854E+02  0.94409068406E+00  0.15215136420E+03  0.17290818209E+03  0.79850669390E+02 0.  0.
       23    2    1    2    0    0 -0.44064473708E+02  0.74969108585E+01 -0.60877840412E+02  0.11855840274E+03  0.91389834729E+02 0.  0.
      -11    1    5    5    0    0 -0.44373940433E+02  0.45423962942E+02 -0.42510439234E+02  0.76416754987E+02  0.00000000000E+00 0. -1.
       11    1    5    5    0    0  0.30946672469E+00 -0.37927052084E+02 -0.18367401177E+02  0.42141647754E+02  0.00000000000E+00 0.  1.
      -13    1    3    3    0    0  0.41157817993E+02  0.39182618870E+02 -0.26961233935E+02  0.62897947016E+02  0.00000000000E+00 0.  1.
       13    1    3    3    0    0  0.22146746569E+02 -0.47623620413E+02 -0.31832055212E+02  0.61414716020E+02  0.00000000000E+00 0. -1.
        4    1    4    4  502    0 -0.70652460159E+01  0.85906586859E+01  0.15725827313E+03  0.15765113887E+03  0.00000000000E+00 0. -1.
       -3    1    4    4    0  502 -0.12174844838E+02 -0.76465680019E+01 -0.51069089312E+01  0.15257043222E+02  0.00000000000E+00 0.  1.
<mgrwt>
<rscale>  0 0.99439545E+02</rscale>
<asrwt>0</asrwt>
<pdfrwt beam="1">  1        2 0.34481499E-01 0.10598024E+03</pdfrwt>
<pdfrwt beam="2">  1       -1 0.29484539E-01 0.10598024E+03</pdfrwt>
<totfact> 0.17540859E+03</totfact>
</mgrwt>
</event>
<event>
10   0  0.7688500E-08  0.2281774E+03  0.7546771E-02  0.1230158E+00
        1   -1    0    0  501    0  0.00000000000E+00  0.00000000000E+00  0.13388866354E+04  0.13388866354E+04  0.00000000000E+00 0. -1.
        2   -1    0    0  502    0  0.00000000000E+00  0.00000000000E+00 -0.15278335126E+04  0.15278335126E+04  0.00000000000E+00 0. -1.
       23    2    1    2    0    0 -0.72280508545E+02 -0.20495231280E+03 -0.14324793788E+03  0.27579585870E+03  0.91178185598E+02 0.  0.
       23    2    1    2    0    0  0.22099242922E+03  0.43465838997E+03  0.75630435641E+03  0.90449706695E+03  0.91395267107E+02 0.  0.
      -11    1    4    4    0    0  0.21799507873E+03  0.41260178692E+03  0.74608767118E+03  0.88000505795E+03  0.00000000000E+00 0. -1.
       11    1    4    4    0    0  0.29973504856E+01  0.22056603044E+02  0.10216685229E+02  0.24492009000E+02  0.00000000000E+00 0.  1.
      -13    1    3    3    0    0 -0.34826127795E+02 -0.82280071762E+02 -0.84802510792E+01  0.89748448703E+02  0.00000000000E+00 0. -1.
       13    1    3    3    0    0 -0.37454380750E+02 -0.12267224104E+03 -0.13476768680E+03  0.18604740999E+03  0.00000000000E+00 0.  1.
        2    1    1    2  501    0 -0.15863923766E+03 -0.15837021962E+03  0.41266963794E+03  0.46962087291E+03  0.00000000000E+00 0. -1.
        1    1    1    2  502    0  0.99273169920E+01 -0.71335857547E+02 -0.12146729337E+04  0.12168063494E+04  0.00000000000E+00 0. -1.
<mgrwt>
<rscale>  0 0.12819551E+03</rscale>
<asrwt>0</asrwt>
<pdfrwt beam="1">  1        2 0.23505131E+00 0.72023303E+02</pdfrwt>
<pdfrwt beam="2">  1        1 0.20598256E+00 0.22817737E+03</pdfrwt>
<totfact> 0.18854448E+01</totfact>
</mgrwt>
</event>
<event>
10   0  0.7688500E-08  0.9971115E+02  0.7546771E-02  0.1554369E+00
       -2   -1    0    0    0  501  0.00000000000E+00  0.00000000000E+00  0.25135710990E+03  0.25135710990E+03  0.00000000000E+00 0.  1.
       -3   -1    0    0    0  502  0.00000000000E+00  0.00000000000E+00 -0.40422982752E+03  0.40422982752E+03  0.00000000000E+00 0.  1.
       23    2    1    2    0    0 -0.71109910692E+02  0.60836453724E+02  0.16659058453E+03  0.22487617599E+03  0.11857140538E+03 0.  0.
       23    2    1    2    0    0 -0.25769495342E+02  0.10891540671E+02 -0.19209347547E+02  0.94832809703E+02  0.88552640925E+02 0.  0.
      -11    1    3    3    0    0 -0.81487865474E+02  0.20719119144E+02  0.42826317390E+02  0.94359141469E+02  0.00000000000E+00 0. -1.
       11    1    3    3    0    0  0.10377954782E+02  0.40117334580E+02  0.12376426714E+03  0.13051703452E+03  0.00000000000E+00 0.  1.
      -13    1    4    4    0    0 -0.45521103445E+02 -0.24367390611E+02 -0.45141463549E+01  0.51829702887E+02  0.00000000000E+00 0.  1.
       13    1    4    4    0    0  0.19751608104E+02  0.35258931281E+02 -0.14695201192E+02  0.43003106816E+02  0.00000000000E+00 0. -1.
       -4    1    1    2    0  502  0.94951244212E+02 -0.83409404587E+02 -0.21184905508E+03  0.24668378481E+03  0.00000000000E+00 0.  1.
       -1    1    1    2    0  501  0.19281618221E+01  0.11681410192E+02 -0.88404899523E+02  0.89194166916E+02  0.00000000000E+00 0.  1.
<mgrwt>
<rscale>  0 0.34358807E+02</rscale>
<asrwt>0</asrwt>
<pdfrwt beam="1">  1       -2 0.38670325E-01 0.11839474E+02</pdfrwt>
<pdfrwt beam="2">  1       -3 0.62189204E-01 0.99711152E+02</pdfrwt>
<totfact> 0.59480716E+01</totfact>
</mgrwt>
</event>
<event>
10   0  0.7688500E-08  0.2541838E+03  0.7546771E-02  0.1214194E+00
        1   -1    0    0  501    0  0.00000000000E+00  0.00000000000E+00  0.22419110348E+04  0.22419110348E+04  0.00000000000E+00 0. -1.
        2   -1    0    0  502    0  0.00000000000E+00  0.00000000000E+00 -0.41693272261E+03  0.41693272261E+03  0.00000000000E+00 0. -1.
       23    2    1    2    0    0 -0.12573592318E+03 -0.35252736992E+02  0.14069048176E+03  0.21223381505E+03  0.90537852573E+02 0.  0.
       23    2    1    2    0    0  0.14829400129E+03  0.22396360520E+03  0.11560539613E+04  0.11904326346E+04  0.92294575909E+02 0.  0.
      -11    1    4    4    0    0  0.85048575691E+02  0.13158085472E+03  0.85496733646E+03  0.86920419234E+03  0.00000000000E+00 0. -1.
       11    1    4    4    0    0  0.63245425600E+02  0.92382750480E+02  0.30108662486E+03  0.32122844225E+03  0.00000000000E+00 0.  1.
      -13    1    3    3    0    0 -0.24008875102E+02 -0.27678768066E+02 -0.21554037639E+01  0.36704033167E+02  0.00000000000E+00 0.  1.
       13    1    3    3    0    0 -0.10172704808E+03 -0.75739689258E+01  0.14284588553E+03  0.17552978188E+03  0.00000000000E+00 0. -1.
        2    1    1    2  501    0  0.54818257459E+02  0.53222588787E+02  0.84595743004E+03  0.84940076451E+03  0.00000000000E+00 0. -1.
        1    1    1    2  502    0 -0.77376335568E+02 -0.24193345699E+03 -0.31772356097E+03  0.40677654322E+03  0.00000000000E+00 0. -1.
<mgrwt>
<rscale>  0 0.13935871E+03</rscale>
<asrwt>0</asrwt>
<pdfrwt beam="1">  1        2 0.64143496E-01 0.25418380E+03</pdfrwt>
<pdfrwt beam="2">  1        1 0.34490939E+00 0.76404747E+02</pdfrwt>
<totfact> 0.28925231E+01</totfact>
</mgrwt>
</event>
<event>
10   0  0.7688500E-08  0.5348314E+03  0.7546771E-02  0.1164406E+00
        1   -1    0    0  501    0  0.00000000000E+00  0.00000000000E+00  0.15549854430E+04  0.15549854430E+04  0.00000000000E+00 0. -1.
        2   -1    0    0  502    0  0.00000000000E+00  0.00000000000E+00 -0.79235875811E+03  0.79235875811E+03  0.00000000000E+00 0. -1.
       23    2    1    2    0    0  0.27408086175E+03 -0.11300141438E+03 -0.29313479937E+03  0.42687225973E+03  0.91663935636E+02 0.  0.
       23    2    1    2    0    0  0.76346273048E+02 -0.21830844383E+03 -0.52224204464E+02  0.25398744006E+03  0.91076463053E+02 0.  0.
      -11    1    3    3    0    0  0.93941482012E+02 -0.11246035594E+02 -0.14210214289E+03  0.17071758660E+03  0.00000000000E+00 0.  1.
       11    1    3    3    0    0  0.18013937974E+03 -0.10175537879E+03 -0.15103265647E+03  0.25615467313E+03  0.00000000000E+00 0. -1.
      -13    1    4    4    0    0  0.43176772908E+02 -0.15838630940E+03  0.57331510291E+01  0.16426602127E+03  0.00000000000E+00 0. -1.
       13    1    4    4    0    0  0.33169500140E+02 -0.59922134433E+02 -0.57957355493E+02  0.89721418793E+02  0.00000000000E+00 0.  1.
        2    1    1    2  501    0 -0.37434806087E+03  0.38958775111E+03  0.13300803387E+04  0.14356283620E+04  0.00000000000E+00 0. -1.
        1    1    1    2  502    0  0.23920926066E+02 -0.58277892896E+02 -0.22209464996E+03  0.23085613929E+03  0.00000000000E+00 0. -1.
<mgrwt>
<rscale>  0 0.18355477E+03</rscale>
<asrwt>0</asrwt>
<pdfrwt beam="1">  1        2 0.12190135E+00 0.62996218E+02</pdfrwt>
<pdfrwt beam="2">  1        1 0.23922853E+00 0.53483135E+03</pdfrwt>
<totfact> 0.32380190E+01</totfact>
</mgrwt>
</event>
<event>
10   0  0.7688500E-08  0.3926061E+02  0.7546771E-02  0.1581216E+00
        2   -1    0    0  502    0  0.00000000000E+00  0.00000000000E+00  0.62758622967E+03  0.62758622967E+03  0.00000000000E+00 0. -1.
        3   -1    0    0  501    0  0.00000000000E+00  0.00000000000E+00 -0.50958149481E+03  0.50958149481E+03  0.00000000000E+00 0. -1.
       23    2    1    2    0    0  0.40146889107E+01  0.12273067480E+02  0.36727140526E+03  0.37873807338E+03  0.91583280125E+02 0.  0.
       23    2    1    2    0    0 -0.13796455487E+02 -0.22642797768E+02 -0.46885884322E+02  0.10470426607E+03  0.89786740163E+02 0.  0.
      -11    1    3    3    0    0 -0.39784266886E+00  0.45529940782E+02  0.10660067172E+03  0.11591737143E+03  0.00000000000E+00 0.  1.
       11    1    3    3    0    0  0.44125315795E+01 -0.33256873301E+02  0.26067073353E+03  0.26282070196E+03  0.00000000000E+00 0. -1.
      -13    1    4    4    0    0 -0.40182249652E+02 -0.50147348917E+01  0.80271164513E+01  0.41281901018E+02  0.00000000000E+00 0.  1.
       13    1    4    4    0    0  0.26385794165E+02 -0.17628062876E+02 -0.54913000773E+02  0.63422365049E+02  0.00000000000E+00 0. -1.
        4    1    1    2  501    0  0.21532648869E+02  0.32896822127E+02 -0.42643070559E+03  0.42823942198E+03  0.00000000000E+00 0. -1.
        1    1    1    2  502    0 -0.11750882293E+02 -0.22527091840E+02  0.22404991951E+03  0.22548596305E+03  0.00000000000E+00 0. -1.
<mgrwt>
<rscale>  0 0.31583591E+02</rscale>
<asrwt>0</asrwt>
<pdfrwt beam="1">  1        2 0.96551728E-01 0.25407737E+02</pdfrwt>
<pdfrwt beam="2">  1        3 0.78397153E-01 0.39260610E+02</pdfrwt>
<totfact> 0.46172921E+01</totfact>
</mgrwt>
</event>
<event>
10   0  0.7688500E-08  0.2110951E+03  0.7546771E-02  0.1284075E+00
        2   -1    0    0  502    0  0.00000000000E+00  0.00000000000E+00  0.28991643173E+04  0.28991643173E+04  0.00000000000E+00 0. -1.
        1   -1    0    0  501    0  0.00000000000E+00  0.00000000000E+00 -0.22604337994E+03  0.22604337994E+03  0.00000000000E+00 0. -1.
       23    2    1    2    0    0  0.94705791876E+02 -0.10665304108E+02  0.98003402961E+03  0.98893562943E+03  0.91891480762E+02 0.  0.
       23    2    1    2    0    0  0.13360354433E+02 -0.17645623998E+03 -0.15065969619E+02  0.19837205850E+03  0.88369601418E+02 0.  0.
      -11    1    3    3    0    0 -0.12691337710E+02  0.18404836739E+01  0.28185116575E+02  0.30965436044E+02  0.00000000000E+00 0.  1.
       11    1    3    3    0    0  0.10739712959E+03 -0.12505787782E+02  0.95184891303E+03  0.95797019338E+03  0.00000000000E+00 0. -1.
      -13    1    4    4    0    0  0.45044499165E+02 -0.64989145269E+02  0.10312405042E+02  0.79742972139E+02  0.00000000000E+00 0.  1.
       13    1    4    4    0    0 -0.31684144732E+02 -0.11146709471E+03 -0.25378374661E+02  0.11862908636E+03  0.00000000000E+00 0. -1.
        2    1    1    2  501    0 -0.15275738682E+03  0.17755049667E+03  0.51424822907E+01  0.23427642481E+03  0.00000000000E+00 0. -1.
        1    1    1    2  502    0  0.44691240512E+02  0.95710474105E+01  0.17030103951E+04  0.17036235845E+04  0.00000000000E+00 0. -1.
<mgrwt>
<rscale>  0 0.98224344E+02</rscale>
<asrwt>0</asrwt>
<pdfrwt beam="1">  1        2 0.44602528E+00 0.45704616E+02</pdfrwt>
<pdfrwt beam="2">  1        1 0.34775905E-01 0.21109513E+03</pdfrwt>
<totfact> 0.53852582E+01</totfact>
</mgrwt>
</event>
<event>
10   0  0.7688500E-08  0.4766491E+03  0.7546771E-02  0.1021128E+00
        2   -1    0    0  502    0  0.00000000000E+00  0.00000000000E+00  0.28450327744E+04  0.28450327744E+04  0.00000000000E+00 0. -1.
       -2   -1    0    0    0  501  0.00000000000E+00  0.00000000000E+00 -0.81658856296E+03  0.81658856296E+03  0.00000000000E+00 0.  1.
       23    2    1    2    0    0 -0.25243461926E+03  0.28670503584E+02  0.39118586789E+03  0.47498733573E+03  0.89673580793E+02 0.  0.
       23    2    1    2    0    0  0.25884384808E+03 -0.26898223971E+02  0.29311194268E+02  0.27759558136E+03  0.92067956093E+02 0.  0.
      -11    1    4    4    0    0  0.20635365575E+02 -0.31434808470E+02  0.75402263958E+01  0.38351277816E+02  0.00000000000E+00 0. -1.
       11    1    4    4    0    0  0.23820848251E+03  0.45365844986E+01  0.21770967872E+02  0.23924430355E+03  0.00000000000E+00 0.  1.
      -13    1    3    3    0    0 -0.24916977925E+03  0.13895139825E+02  0.34095572262E+03  0.42252746489E+03  0.00000000000E+00 0. -1.
       13    1    3    3    0    0 -0.32648400106E+01  0.14775363759E+02  0.50230145274E+02  0.52459870842E+02  0.00000000000E+00 0.  1.
        1    1    1    2  502    0 -0.61059175271E+03  0.29939570887E+03  0.20109429372E+04  0.21228168964E+04  0.00000000000E+00 0. -1.
       -1    1    1    2    0  501  0.60418252389E+03 -0.30116798848E+03 -0.40299578794E+03  0.78622152384E+03  0.00000000000E+00 0.  1.
<mgrwt>
<rscale>  0 0.47281846E+03</rscale>
<asrwt>0</asrwt>
<pdfrwt beam="1">  1        2 0.43769735E+00 0.47664907E+03</pdfrwt>
<pdfrwt beam="2">  1       -2 0.12562901E+00 0.46901863E+03</pdfrwt>
<totfact> 0.11792830E+00</totfact>
</mgrwt>
</event>
<event>
10   0  0.7688500E-08  0.1592968E+03  0.7546771E-02  0.1203033E+00
        2   -1    0    0  502    0  0.00000000000E+00  0.00000000000E+00  0.35875081613E+03  0.35875081613E+03  0.00000000000E+00 0. -1.
        1   -1    0    0  501    0  0.00000000000E+00  0.00000000000E+00 -0.34374344608E+04  0.34374344608E+04  0.00000000000E+00 0. -1.
       23    2    1    2    0    0 -0.20460725673E+03 -0.16090906822E+02 -0.54048433182E+03  0.58505156207E+03  0.89660306455E+02 0.  0.
       23    2    1    2    0    0 -0.73088003160E+02 -0.21064987073E+02 -0.16417631195E+03  0.19673360060E+03  0.77231200391E+02 0.  0.
      -11    1    3    3    0    0 -0.16528405308E+03 -0.58147457038E+00 -0.49964829100E+03  0.52627708578E+03  0.00000000000E+00 0. -1.
       11    1    3    3    0    0 -0.39323203650E+02 -0.15509432251E+02 -0.40836040819E+02  0.58774476296E+02  0.00000000000E+00 0.  1.
      -13    1    4    4    0    0  0.12500056448E+02 -0.19048012838E+02 -0.35150500032E+02  0.41888373766E+02  0.00000000000E+00 0.  1.
       13    1    4    4    0    0 -0.85588059608E+02 -0.20169742359E+01 -0.12902581192E+03  0.15484522684E+03  0.00000000000E+00 0. -1.
        2    1    1    2  501    0  0.13479562513E+03 -0.26541591213E+02 -0.26732298031E+04  0.26767577210E+04  0.00000000000E+00 0. -1.
        1    1    1    2  502    0  0.14289963476E+03  0.63697485108E+02  0.29920680222E+03  0.33764239325E+03  0.00000000000E+00 0. -1.
<mgrwt>
<rscale>  0 0.14793514E+03</rscale>
<asrwt>0</asrwt>
<pdfrwt beam="1">  1        2 0.55192433E-01 0.15929681E+03</pdfrwt>
<pdfrwt beam="2">  1        1 0.52883607E+00 0.13738383E+03</pdfrwt>
<totfact> 0.48657408E+00</totfact>
</mgrwt>
</event>
<event>
10   0  0.7688500E-08  0.1287505E+03  0.7546771E-02  0.1328876E+00
       -1   -1    0    0    0  501  0.00000000000E+00  0.00000000000E+00  0.30287490866E+03  0.30287490866E+03  0.00000000000E+00 0.  1.
        1   -1    0    0  502    0  0.00000000000E+00  0.00000000000E+00 -0.12990512319E+04  0.12990512319E+04  0.00000000000E+00 0. -1.
       23    2    1    2    0    0  0.93472277500E+01 -0.73963204791E+02 -0.46078828405E+03  0.47380890568E+03  0.81308732930E+02 0.  0.
       23    2    1    2    0    0 -0.47372109041E+02 -0.12961682078E+02 -0.16361843614E+03  0.19167050372E+03  0.86916439371E+02 0.  0.
      -11    1    3    3    0    0 -0.12606981892E+01 -0.80089528899E+02 -0.45119462641E+03  0.45824940033E+03  0.00000000000E+00 0.  1.
       11    1    3    3    0    0  0.10607925939E+02  0.61263241083E+01 -0.95936576426E+01  0.15559505351E+02  0.00000000000E+00 0. -1.
      -13    1    4    4    0    0 -0.34825305609E+02 -0.49649777651E+02 -0.10815355028E+03  0.12399634176E+03  0.00000000000E+00 0.  1.
       13    1    4    4    0    0 -0.12546803432E+02  0.36688095573E+02 -0.55464885855E+02  0.67674161953E+02  0.00000000000E+00 0. -1.
        2    1    1    2  502    0  0.34386184410E+01  0.12273526041E+03 -0.64608582527E+03  0.65764934567E+03  0.00000000000E+00 0. -1.
       -2    1    1    2    0  501  0.34586262850E+02 -0.35810373545E+02  0.27431622218E+03  0.27879738554E+03  0.00000000000E+00 0.  1.
<mgrwt>
<rscale>  0 0.80061887E+02</rscale>
<asrwt>0</asrwt>
<pdfrwt beam="1">  1        1 0.19985404E+00 0.12875055E+03</pdfrwt>
<pdfrwt beam="2">  1       -1 0.46596140E-01 0.49785464E+02</pdfrwt>
<totfact> 0.49514149E+01</totfact>
</mgrwt>
</event>
<event>
10   0  0.7688500E-08  0.5902505E+03  0.7546771E-02  0.1248196E+00
        2   -1    0    0  502    0  0.00000000000E+00  0.00000000000E+00  0.10453631819E+04  0.10453631819E+04  0.00000000000E+00 0. -1.
        1   -1    0    0  501    0  0.00000000000E+00  0.00000000000E+00 -0.27905641899E+04  0.27905641899E+04  0.00000000000E+00 0. -1.
       23    2    1    2    0    0  0.16371089769E+03  0.10501373777E+03 -0.68589793676E+03  0.71884187590E+03  0.91915829681E+02 0.  0.
       23    2    1    2    0    0  0.44384720913E+03  0.62116591951E+02 -0.55238739209E+03  0.71712973577E+03  0.91018739453E+02 0.  0.
      -11    1    3    3    0    0  0.43375319557E+02  0.15688222414E+01 -0.66284161093E+02  0.79230483790E+02  0.00000000000E+00 0.  1.
       11    1    3    3    0    0  0.12033557813E+03  0.10344491553E+03 -0.61961377567E+03  0.63961139211E+03  0.00000000000E+00 0. -1.
      -13    1    4    4    0    0  0.33445322057E+03  0.19854391898E+02 -0.35974746257E+03  0.49160084464E+03  0.00000000000E+00 0.  1.
       13    1    4    4    0    0  0.10939398857E+03  0.42262200053E+02 -0.19263992952E+03  0.22552889113E+03  0.00000000000E+00 0. -1.
        2    1    1    2  501    0 -0.20627996723E+02  0.10565699353E+02 -0.13539983883E+04  0.13541967301E+04  0.00000000000E+00 0. -1.
        1    1    1    2  502    0 -0.58693011010E+03 -0.17769602907E+03  0.84708270910E+03  0.10457590301E+04  0.00000000000E+00 0. -1.
<mgrwt>
<rscale>  0 0.11696117E+03</rscale>
<asrwt>0</asrwt>
<pdfrwt beam="1">  1        2 0.16082510E+00 0.59025047E+03</pdfrwt>
<pdfrwt beam="2">  1        1 0.42931757E+00 0.23176459E+02</pdfrwt>
<totfact> 0.50075596E+00</totfact>
</mgrwt>
</event>
<event>
10   0  0.7688500E-08  0.1252437E+03  0.7546771E-02  0.1257510E+00
       -2   -1    0    0    0  501  0.00000000000E+00  0.00000000000E+00  0.12983432457E+03  0.12983432457E+03  0.00000000000E+00 0.  1.
        2   -1    0    0  502    0  0.00000000000E+00  0.00000000000E+00 -0.80714759906E+03  0.80714759906E+03  0.00000000000E+00 0. -1.
       23    2    1    2    0    0  0.29721848827E+02  0.32186946756E+02 -0.25301787337E+03  0.27281318693E+03  0.92139041016E+02 0.  0.
       23    2    1    2    0    0 -0.10739993397E+02 -0.17429714335E+03 -0.12538945591E+03  0.23489418196E+03  0.94646285861E+02 0.  0.
      -11    1    3    3    0    0 -0.31737444645E+02  0.23799454833E+02 -0.88243710301E+02  0.96750358401E+02  0.00000000000E+00 0.  1.
       11    1    3    3    0    0  0.61459293472E+02  0.83874919223E+01 -0.16477416307E+03  0.17606282853E+03  0.00000000000E+00 0. -1.
      -13    1    4    4    0    0  0.16724369233E+02 -0.16838766389E+03 -0.11644888438E+03  0.20541288312E+03  0.00000000000E+00 0.  1.
       13    1    4    4    0    0 -0.27464362630E+02 -0.59094794570E+01 -0.89405715265E+01  0.29481298841E+02  0.00000000000E+00 0. -1.
        1    1    1    2  502    0  0.76591916121E+02  0.11419878915E+03 -0.29966336558E+03  0.32970565317E+03  0.00000000000E+00 0. -1.
       -1    1    1    2    0  501 -0.95573771551E+02  0.27911407439E+02  0.75742037137E+00  0.99568901567E+02  0.00000000000E+00 0.  1.
<mgrwt>
<rscale>  0 0.11166925E+03</rscale>
<asrwt>0</asrwt>
<pdfrwt beam="1">  1        2 0.12417655E+00 0.12524374E+03</pdfrwt>
<pdfrwt beam="2">  1       -2 0.19974511E-01 0.99566021E+02</pdfrwt>
<totfact> 0.73893147E+02</totfact>
</mgrwt>
</event>
<event>
10   0  0.7688500E-08  0.1568392E+03  0.7546771E-02  0.1472954E+00
       -2   -1    0    0    0  501  0.00000000000E+00  0.00000000000E+00  0.64718893172E+03  0.64718893172E+03  0.00000000000E+00 0.  1.
        2   -1    0    0  502    0  0.00000000000E+00  0.00000000000E+00 -0.26441638474E+03  0.26441638474E+03  0.00000000000E+00 0. -1.
       23    2    1    2    0    0 -0.13311036084E+03  0.56164333657E+02  0.17190552401E+03  0.24270403702E+03  0.92092018447E+02 0.  0.
       23    2    1    2    0    0  0.27162587954E+03  0.20873383813E+01  0.27451672759E+03  0.39717609334E+03  0.92760120616E+02 0.  0.
      -11    1    3    3    0    0 -0.37994047189E+02  0.63076084343E+02  0.94970147950E+02  0.12017266345E+03  0.00000000000E+00 0.  1.
       11    1    3    3    0    0 -0.95116313652E+02 -0.69117506860E+01  0.76935376055E+02  0.12253137357E+03  0.00000000000E+00 0. -1.
      -13    1    4    4    0    0  0.17850628877E+03  0.44744137853E+02  0.18832025199E+03  0.26330790021E+03  0.00000000000E+00 0.  1.
       13    1    4    4    0    0  0.93119590770E+02 -0.42656799472E+02  0.86196475598E+02  0.13386819313E+03  0.00000000000E+00 0. -1.
        1    1    1    2  502    0 -0.14899058445E+03 -0.50486009104E+02 -0.13001832930E+03  0.20408771968E+03  0.00000000000E+00 0. -1.
       -1    1    1    2    0  501  0.10475065753E+02 -0.77656629338E+01  0.66368624679E+02  0.67637466431E+02  0.00000000000E+00 0.  1.
<mgrwt>
<rscale>  0 0.45223096E+02</rscale>
<asrwt>0</asrwt>
<pdfrwt beam="1">  1        2 0.40679444E-01 0.15683919E+03</pdfrwt>
<pdfrwt beam="2">  1       -2 0.99567528E-01 0.13039652E+02</pdfrwt>
<totfact> 0.11667193E+02</totfact>
</mgrwt>
</event>
<event>
10   0  0.7688500E-08  0.1346179E+03  0.7546771E-02  0.1289358E+00
        1   -1    0    0  501    0  0.00000000000E+00  0.00000000000E+00  0.36296666882E+03  0.36296666882E+03  0.00000000000E+00 0. -1.
        2   -1    0    0  502    0  0.00000000000E+00  0.00000000000E+00 -0.99342029270E+03  0.99342029270E+03  0.00000000000E+00 0. -1.
       23    2    1    2    0    0  0.11252820798E+03 -0.53560136989E+02 -0.21584879998E+03  0.26500713003E+03  0.90037706809E+02 0.  0.
       23    2    1    2    0    0 -0.40940353440E+02  0.81121449396E+02 -0.18680696033E+03  0.22860495771E+03  0.95428424331E+02 0.  0.
      -11    1    4    4    0    0  0.11636034666E+02 -0.16898245326E+02 -0.30665522366E+02  0.36896100875E+02  0.00000000000E+00 0.  1.
       11    1    4    4    0    0 -0.52576388105E+02  0.98019694722E+02 -0.15614143797E+03  0.19170885684E+03  0.00000000000E+00 0. -1.
      -13    1    3    3    0    0  0.50212875545E+02  0.18224179483E+01 -0.15172874292E+03  0.15983199149E+03  0.00000000000E+00 0. -1.
       13    1    3    3    0    0  0.62315332438E+02 -0.55382554937E+02 -0.64120057061E+02  0.10517513853E+03  0.00000000000E+00 0.  1.
        2    1    1    2  501    0 -0.13595522572E+03 -0.50439357178E+01  0.30062151203E+03  0.32997357195E+03  0.00000000000E+00 0. -1.
        1    1    1    2  502    0  0.64367371174E+02 -0.22517376689E+02 -0.52841937560E+03  0.53280130184E+03  0.00000000000E+00 0. -1.
<mgrwt>
<rscale>  0 0.95811810E+02</rscale>
<asrwt>0</asrwt>
<pdfrwt beam="1">  1        2 0.15283389E+00 0.68192307E+02</pdfrwt>
<pdfrwt beam="2">  1        1 0.55841026E-01 0.13461787E+03</pdfrwt>
<totfact> 0.26850475E+02</totfact>
</mgrwt>
</event>
<event>
11   0  0.7688500E-08  0.1011312E+03  0.7546771E-02  0.1280615E+00
       -3   -1    0    0    0  501  0.00000000000E+00  0.00000000000E+00  0.11623387563E+03  0.11623387563E+03  0.00000000000E+00 0.  1.
        3   -1    0    0  501    0  0.00000000000E+00  0.00000000000E+00 -0.30321791848E+03  0.30321791848E+03  0.00000000000E+00 0. -1.
       23    2    1    2    0    0  0.27773983198E+01  0.66014890275E+02  0.27427002869E+02  0.11601178400E+03  0.91328056261E+02 0.  0.
       23    2    1    2    0    0 -0.62452669935E+01 -0.23388233696E+02 -0.39579834005E+02  0.10285051484E+03  0.91791352029E+02 0.  0.
       23    2    1    2    0    0  0.34678686736E+01 -0.42626656579E+02 -0.17483121172E+03  0.20058949528E+03  0.88550183861E+02 0.  0.
      -11    1    5    5    0    0 -0.14988926623E+01 -0.50034438480E+02 -0.18224325355E+03  0.18899284425E+03  0.00000000000E+00 0.  1.
       11    1    5    5    0    0  0.49667613359E+01  0.74077819004E+01  0.74120418360E+01  0.11596651027E+02  0.00000000000E+00 0. -1.
      -13    1    3    3    0    0  0.20106253454E+02  0.10843618903E+02 -0.27845384124E+02  0.36016814349E+02  0.00000000000E+00 0. -1.
       13    1    3    3    0    0 -0.17328855134E+02  0.55171271372E+02  0.55272386993E+02  0.79994969648E+02  0.00000000000E+00 0.  1.
        3    1    4    4  502    0 -0.83040437966E+01 -0.43395534468E+02 -0.59786078252E+02  0.74340464808E+02  0.00000000000E+00 0. -1.
       -3    1    4    4    0  502  0.20587768031E+01  0.20007300772E+02  0.20206244248E+02  0.28510050030E+02  0.00000000000E+00 0.  1.
<mgrwt>
<rscale>  0 0.99848262E+02</rscale>
<asrwt>0</asrwt>
<pdfrwt beam="1">  1        3 0.46648911E-01 0.10113120E+03</pdfrwt>
<pdfrwt beam="2">  1       -3 0.17882135E-01 0.10113120E+03</pdfrwt>
<totfact> 0.28082835E+02</totfact>
</mgrwt>
</event>
<event>
10   0  0.7688500E-08  0.1324706E+03  0.7546771E-02  0.1374857E+00
        4   -1    0    0  502    0  0.00000000000E+00  0.00000000000E+00  0.42438756691E+02  0.42438756691E+02  0.00000000000E+00 0. -1.
        1   -1    0    0  501    0  0.00000000000E+00  0.00000000000E+00 -0.14638345388E+04  0.14638345388E+04  0.00000000000E+00 0. -1.
       23    2    1    2    0    0  0.44640575907E+02 -0.74654579263E+01 -0.18979248255E+03  0.21518076447E+03  0.90736215939E+02 0.  0.
       23    2    1    2    0    0 -0.13273917974E+03 -0.74185374202E+02 -0.49491669345E+03  0.52565482409E+03  0.90814652183E+02 0.  0.
      -11    1    4    4    0    0 -0.26683689579E+02 -0.25856753492E+02 -0.34456893563E+02  0.50674140395E+02  0.00000000000E+00 0.  1.
       11    1    4    4    0    0 -0.10605549016E+03 -0.48328620710E+02 -0.46045979988E+03  0.47498068369E+03  0.00000000000E+00 0. -1.
      -13    1    3    3    0    0 -0.18281548186E+02 -0.27647982001E+02 -0.43781562462E+02  0.54913123426E+02  0.00000000000E+00 0.  1.
       13    1    3    3    0    0  0.62922124093E+02  0.20182524075E+02 -0.14601092009E+03  0.16026764104E+03  0.00000000000E+00 0. -1.
        2    1    1    2  501    0 -0.13895485382E+02 -0.29621633961E+02 -0.33042264818E+03  0.33203863050E+03  0.00000000000E+00 0. -1.
        3    1    1    2  502    0  0.10199408921E+03  0.11127246609E+03 -0.40626395788E+03  0.43339907639E+03  0.00000000000E+00 0. -1.
<mgrwt>
<rscale>  0 0.65835335E+02</rscale>
<asrwt>0</asrwt>
<pdfrwt beam="1">  1        4 0.65290395E-02 0.13247061E+03</pdfrwt>
<pdfrwt beam="2">  1        1 0.22520531E+00 0.32718889E+02</pdfrwt>
<totfact> 0.62978166E+02</totfact>
</mgrwt>
</event>
<event>
10   0  0.7688500E-08  0.6971178E+02  0.7546771E-02  0.1520127E+00
        3   -1    0    0  501    0  0.00000000000E+00  0.00000000000E+00  0.66435700536E+03  0.66435700536E+03  0.00000000000E+00 0. -1.
        2   -1    0    0  502    0  0.00000000000E+00  0.00000000000E+00 -0.43055908186E+03  0.43055908186E+03  0.00000000000E+00 0. -1.
       23    2    1    2    0    0  0.94766399116E+02  0.17130239789E+02  0.78647537092E+02  0.15437865480E+03  0.91505291932E+02 0.  0.
       23    2    1    2    0    0 -0.38371701526E+02  0.19889541546E+02 -0.32493036508E+02  0.10624276998E+03  0.91453525958E+02 0.  0.
      -11    1    3    3    0    0  0.20273592389E+02  0.34498240344E+02  0.65515824591E+02  0.76768941683E+02  0.00000000000E+00 0.  1.
       11    1    3    3    0    0  0.74492806727E+02 -0.17368000556E+02  0.13131712501E+02  0.77609713120E+02  0.00000000000E+00 0. -1.
      -13    1    4    4    0    0 -0.18936165010E+02  0.56510147061E+02 -0.16892415368E+02  0.61946176340E+02  0.00000000000E+00 0.  1.
       13    1    4    4    0    0 -0.19435536516E+02 -0.36620605515E+02 -0.15600621140E+02  0.44296593638E+02  0.00000000000E+00 0. -1.
        4    1    1    2  501    0  0.10860900850E+02 -0.18183869935E+02  0.50697351476E+03  0.50741576341E+03  0.00000000000E+00 0. -1.
        1    1    1    2  502    0 -0.67255598440E+02 -0.18835911399E+02 -0.31933009183E+03  0.32687889903E+03  0.00000000000E+00 0. -1.
<mgrwt>
<rscale>  0 0.38425619E+02</rscale>
<asrwt>0</asrwt>
<pdfrwt beam="1">  1        2 0.66239859E-01 0.69711778E+02</pdfrwt>
<pdfrwt beam="2">  1        3 0.10220877E+00 0.21180470E+02</pdfrwt>
<totfact> 0.37045944E+01</totfact>
</mgrwt>
</event>
<event>
10   0  0.7688500E-08  0.1734420E+03  0.7546771E-02  0.1338457E+00
        2   -1    0    0  502    0  0.00000000000E+00  0.00000000000E+00  0.25206147131E+04  0.25206147131E+04  0.00000000000E+00 0. -1.
        1   -1    0    0  501    0  0.00000000000E+00  0.00000000000E+00 -0.28347652735E+04  0.28347652735E+04  0.00000000000E+00 0. -1.
       23    2    1    2    0    0  0.62417491461E+01 -0.71166034542E+02  0.27379418945E+03  0.29750305286E+03  0.91876244915E+02 0.  0.
       23    2    1    2    0    0  0.14526577705E+02 -0.68892269101E+02  0.20599467525E+03  0.23629091804E+03  0.91882672545E+02 0.  0.
      -11    1    4    4    0    0 -0.19625523261E+01 -0.84926815798E+02  0.11836941050E+03  0.14569740216E+03  0.00000000000E+00 0. -1.
       11    1    4    4    0    0  0.16489130031E+02  0.16034546697E+02  0.87625264752E+02  0.90593515882E+02  0.00000000000E+00 0.  1.
      -13    1    3    3    0    0 -0.38534080512E+02 -0.46222106779E+02  0.10415414354E+03  0.12028900254E+03  0.00000000000E+00 0.  1.
       13    1    3    3    0    0  0.44775829659E+02 -0.24943927763E+02  0.16964004591E+03  0.17721405031E+03  0.00000000000E+00 0. -1.
        2    1    1    2  501    0 -0.37858330914E+02  0.16943466952E+03 -0.28049352505E+04  0.28103030300E+04  0.00000000000E+00 0. -1.
        1    1    1    2  502    0  0.17090004063E+02 -0.29376365873E+02  0.20109958254E+04  0.20112829858E+04  0.00000000000E+00 0. -1.
<mgrwt>
<rscale>  0 0.76776151E+02</rscale>
<asrwt>0</asrwt>
<pdfrwt beam="1">  1        2 0.38778688E+00 0.33985866E+02</pdfrwt>
<pdfrwt beam="2">  1        1 0.43611773E+00 0.17344202E+03</pdfrwt>
<totfact> 0.72385828E-01</totfact>
</mgrwt>
</event>
<event>
10   0  0.7688500E-08  0.1022050E+03  0.7546771E-02  0.1300123E+00
        1   -1    0    0  502    0  0.00000000000E+00  0.00000000000E+00  0.26623263118E+04  0.26623263118E+04  0.00000000000E+00 0. -1.
       -1   -1    0    0    0  501  0.00000000000E+00  0.00000000000E+00 -0.27808865091E+03  0.27808865091E+03  0.00000000000E+00 0.  1.
       23    2    1    2    0    0  0.81730531012E+01  0.40620307331E+02  0.13928956855E+03  0.17115391985E+03  0.90417211895E+02 0.  0.
       23    2    1    2    0    0  0.10233127781E+02 -0.62273147329E+02  0.25165327551E+02  0.11349275498E+03  0.90910120121E+02 0.  0.
      -11    1    3    3    0    0  0.53256000913E+01  0.65961429246E+02  0.65615994146E+02  0.93191903362E+02  0.00000000000E+00 0.  1.
       11    1    3    3    0    0  0.28474530099E+01 -0.25341121915E+02  0.73673574409E+02  0.77962016487E+02  0.00000000000E+00 0. -1.
      -13    1    4    4    0    0 -0.46575144227E+01  0.22154289940E+02  0.15010627248E+02  0.27162914677E+02  0.00000000000E+00 0.  1.
       13    1    4    4    0    0  0.14890642204E+02 -0.84427437269E+02  0.10154700302E+02  0.86329840306E+02  0.00000000000E+00 0. -1.
        2    1    1    2  502    0 -0.99017791778E+02  0.31950234696E+02  0.24290490380E+04  0.24312763252E+04  0.00000000000E+00 0. -1.
       -2    1    1    2    0  501  0.80611610896E+02 -0.10297394698E+02 -0.20926627326E+03  0.22449196260E+03  0.00000000000E+00 0.  1.
<mgrwt>
<rscale>  0 0.91136483E+02</rscale>
<asrwt>0</asrwt>
<pdfrwt beam="1">  1        1 0.40958866E+00 0.10220501E+03</pdfrwt>
<pdfrwt beam="2">  1       -1 0.42782869E-01 0.81266648E+02</pdfrwt>
<totfact> 0.79093913E+00</totfact>
</mgrwt>
</event>
<event>
11   0  0.7688500E-08  0.1676336E+03  0.7546771E-02  0.1195798E+00
       -2   -1    0    0    0  501  0.00000000000E+00  0.00000000000E+00  0.48731032024E+02  0.48731032024E+02  0.00000000000E+00 0.  1.
        2   -1    0    0  501    0  0.00000000000E+00  0.00000000000E+00 -0.11467264082E+04  0.11467264082E+04  0.00000000000E+00 0. -1.
       23    2    1    2    0    0 -0.91845954506E+02  0.90882485450E+02 -0.30211121957E+03  0.34728924523E+03  0.11244254240E+03 0.  0.
       23    2    1    2    0    0  0.13518153204E+03 -0.34854319715E+02 -0.57317194591E+03  0.59745522198E+03  0.94539898912E+02 0.  0.
       23    2    1    2    0    0 -0.43335577529E+02 -0.56028165735E+02 -0.22271221067E+03  0.25071297299E+03  0.90769699839E+02 0.  0.
      -11    1    3    3    0    0 -0.49347653927E+02  0.20152983198E+01 -0.29738631669E+02  0.57651006833E+02  0.00000000000E+00 0.  1.
       11    1    3    3    0    0 -0.42498300580E+02  0.88867187130E+02 -0.27237258790E+03  0.28963823840E+03  0.00000000000E+00 0. -1.
      -13    1    5    5    0    0 -0.27955873932E+02  0.17328971923E+02 -0.32382254402E+02  0.46156630676E+02  0.00000000000E+00 0. -1.
       13    1    5    5    0    0 -0.15379703597E+02 -0.73357137658E+02 -0.19032995626E+03  0.20455634231E+03  0.00000000000E+00 0.  1.
        2    1    4    4  502    0  0.13621170780E+03 -0.33758291400E+01 -0.48726845596E+03  0.50596005152E+03  0.00000000000E+00 0. -1.
       -2    1    4    4    0  502 -0.10301757685E+01 -0.31478490575E+02 -0.85903489952E+02  0.91495170457E+02  0.00000000000E+00 0.  1.
<mgrwt>
<rscale>  0 0.15386863E+03</rscale>
<asrwt>0</asrwt>
<pdfrwt beam="1">  1        2 0.17641945E+00 0.16763358E+03</pdfrwt>
<pdfrwt beam="2">  1       -2 0.74970818E-02 0.16763358E+03</pdfrwt>
<totfact> 0.22364196E+03</totfact>
</mgrwt>
</event>
<event>
10   0  0.7688500E-08  0.6665482E+02  0.7546771E-02  0.1545959E+00
        2   -1    0    0  502    0  0.00000000000E+00  0.00000000000E+00  0.29776695549E+03  0.29776695549E+03  0.00000000000E+00 0. -1.
        1   -1    0    0  501    0  0.00000000000E+00  0.00000000000E+00 -0.23533761357E+04  0.23533761357E+04  0.00000000000E+00 0. -1.
       23    2    1    2    0    0 -0.17880535294E+01  0.24125850060E+02  0.26722241197E+03  0.28317064892E+03  0.90512679635E+02 0.  0.
       23    2    1    2    0    0  0.12073772276E+02  0.38954279783E+02 -0.31625748858E+03  0.33181071211E+03  0.91740600030E+02 0.  0.
      -11    1    4    4    0    0 -0.38643646467E+02  0.22255790496E+02 -0.10862707580E+03  0.11742441493E+03  0.00000000000E+00 0.  1.
       11    1    4    4    0    0  0.50717418743E+02  0.16698489287E+02 -0.20763041278E+03  0.21438629718E+03  0.00000000000E+00 0. -1.
      -13    1    3    3    0    0 -0.80856515927E+01  0.40081430973E+02  0.47064655434E+02  0.62345654713E+02  0.00000000000E+00 0.  1.
       13    1    3    3    0    0  0.62975980632E+01 -0.15955580913E+02  0.22015775654E+03  0.22082499421E+03  0.00000000000E+00 0. -1.
        2    1    1    2  501    0 -0.28748240321E+02 -0.60147990449E+02 -0.20146824352E+04  0.20157850969E+04  0.00000000000E+00 0. -1.
        1    1    1    2  502    0  0.18462521574E+02 -0.29321393950E+01  0.81083315662E+01  0.20376633311E+02  0.00000000000E+00 0. -1.
<mgrwt>
<rscale>  0 0.35299277E+02</rscale>
<asrwt>0</asrwt>
<pdfrwt beam="1">  1        2 0.45810301E-01 0.18693907E+02</pdfrwt>
<pdfrwt beam="2">  1        1 0.36205787E+00 0.66654820E+02</pdfrwt>
<totfact> 0.35208487E+01</totfact>
</mgrwt>
</event>
<event>
11   0  0.7688500E-08  0.8942614E+02  0.7546771E-02  0.1308090E+00
       -2   -1    0    0    0  501  0.00000000000E+00  0.00000000000E+00  0.23708153654E+03  0.23708153654E+03  0.00000000000E+00 0.  1.
        1   -1    0    0  501    0  0.00000000000E+00  0.00000000000E+00 -0.26525593738E+03  0.26525593738E+03  0.00000000000E+00 0. -1.
       23    2    1    2    0    0 -0.82252423873E+01 -0.15540091925E+01  0.46520264128E+02  0.10269541384E+03  0.91170957505E+02 0.  0.
      -24    2    1    2    0    0  0.14663777131E+02 -0.42023494549E+01 -0.21729880470E+03  0.23213427789E+03  0.80217618693E+02 0.  0.
       23    2    1    2    0    0 -0.64385347441E+01  0.57563586474E+01  0.14260413973E+03  0.16750778219E+03  0.87454708457E+02 0.  0.
      -11    1    5    5    0    0 -0.79739776279E+01 -0.40526928074E+02  0.73772159661E+02  0.84547902158E+02  0.00000000000E+00 0. -1.
       11    1    5    5    0    0  0.15354428838E+01  0.46283286721E+02  0.68831980072E+02  0.82959880034E+02  0.00000000000E+00 0.  1.
      -13    1    3    3    0    0 -0.12448786356E+02 -0.43339654733E+02  0.81792464274E+01  0.45827917542E+02  0.00000000000E+00 0. -1.
       13    1    3    3    0    0  0.42235439691E+01  0.41785645541E+02  0.38341017701E+02  0.56867496298E+02  0.00000000000E+00 0.  1.
        3    1    4    4  502    0 -0.26137106460E+02 -0.24705450485E+02 -0.92790377497E+02  0.99516640688E+02  0.00000000000E+00 0. -1.
       -4    1    4    4    0  502  0.40800883591E+02  0.20503101030E+02 -0.12450842720E+03  0.13261763721E+03  0.00000000000E+00 0.  1.
<mgrwt>
<rscale>  0 0.87871214E+02</rscale>
<asrwt>0</asrwt>
<pdfrwt beam="1">  1        1 0.40808606E-01 0.89426136E+02</pdfrwt>
<pdfrwt beam="2">  1       -2 0.36474083E-01 0.89426136E+02</pdfrwt>
<totfact> 0.63253500E+02</totfact>
</mgrwt>
</event>
<event>
10   0  0.7688500E-08  0.2285706E+03  0.7546771E-02  0.1342419E+00
        4   -1    0    0  502    0  0.00000000000E+00  0.00000000000E+00  0.38427204299E+03  0.38427204299E+03  0.00000000000E+00 0. -1.
        1   -1    0    0  501    0  0.00000000000E+00  0.00000000000E+00 -0.19481937908E+04  0.19481937908E+04  0.00000000000E+00 0. -1.
       23    2    1    2    0    0 -0.36262920969E+03 -0.45099033404E+03 -0.83798004737E+02  0.59176723844E+03  0.90962265656E+02 0.  0.
       23    2    1    2    0    0  0.45200241601E+01 -0.14508550373E+02 -0.18764334887E+03  0.20951106657E+03  0.91945266263E+02 0.  0.
      -11    1    3    3    0    0 -0.42930739818E+02 -0.19263670059E+02  0.48043069108E+01  0.47299247038E+02  0.00000000000E+00 0.  1.
       11    1    3    3    0    0 -0.31969846988E+03 -0.43172666398E+03 -0.88602311648E+02  0.54446799140E+03  0.00000000000E+00 0. -1.
      -13    1    4    4    0    0  0.39538264851E+02  0.18901915805E+02 -0.10430962427E+03  0.11314174527E+03  0.00000000000E+00 0. -1.
       13    1    4    4    0    0 -0.35018240691E+02 -0.33410466178E+02 -0.83333724599E+02  0.96369321295E+02  0.00000000000E+00 0.  1.
        2    1    1    2  501    0  0.33866599942E+03  0.44991233535E+03 -0.13531225777E+04  0.14656249448E+04  0.00000000000E+00 0. -1.
        3    1    1    2  502    0  0.19443186114E+02  0.15586549064E+02  0.60642183473E+02  0.65562583951E+02  0.00000000000E+00 0. -1.
<mgrwt>
<rscale>  0 0.75470847E+02</rscale>
<asrwt>0</asrwt>
<pdfrwt beam="1">  1        4 0.59118776E-01 0.24919430E+02</pdfrwt>
<pdfrwt beam="2">  1        1 0.29972212E+00 0.22857059E+03</pdfrwt>
<totfact> 0.39230324E+00</totfact>
</mgrwt>
</event>
