<LesHouchesEvents version="3.0">
<header>
<!--
#*********************************************************************
#                                                                    *
#                        MadGraph5_aMC@NLO                           *
#                                                                    *
#                           Going Beyond                             *
#                                                                    *
#                   http://madgraph.hep.uiuc.edu                     *
#                   http://madgraph.phys.ucl.ac.be                   *
#                   http://amcatnlo.cern.ch                          *
#                                                                    *
#                     The MadGraph5_aMC@NLO team                     *
#                                                                    *
#....................................................................*
#                                                                    *
# This file contains all the information necessary to reproduce      *
# the events generated:                                              *
#                                                                    *
# 1. software version                                                *
# 2. proc_card          : code generation info including model       *
# 3. param_card         : model primary parameters in the LH format  *
# 4. run_card           : running parameters (collider and cuts)     *
# 5. pythia_card        : present only if pythia has been run        *
# 6. pgs_card           : present only if pgs has been run           *
# 7. delphes_cards      : present only if delphes has been run       *
#                                                                    *
#                                                                    *
#*********************************************************************
-->
<MGVersion>
#5.2.3.2.2
</MGVersion>
<MG5ProcCard>
#************************************************************
#*                     MadGraph5_aMC@NLO                    *
#*                                                          *
#*                *                       *                 *
#*                  *        * *        *                   *
#*                    * * * * 5 * * * *                     *
#*                  *        * *        *                   *
#*                *                       *                 *
#*                                                          *
#*                                                          *
#*         VERSION 2.3.2.2               2015-09-06         *
#*                                                          *
#*    The MadGraph5_aMC@NLO Development Team - Find us at   *
#*    https://server06.fynu.ucl.ac.be/projects/madgraph     *
#*                                                          *
#************************************************************
#*                                                          *
#*               Command File for MadGraph5_aMC@NLO         *
#*                                                          *
#*     run as ./bin/mg5_aMC  filename                       *
#*                                                          *
#************************************************************
set group_subprocesses Auto
set ignore_six_quark_processes False
set loop_color_flows False
set gauge unitary
set complex_mass_scheme False
set max_npoint_for_channel 0
import model sm
define p = g u c d s u~ c~ d~ s~
define j = g u c d s u~ c~ d~ s~
define l+ = e+ mu+
define l- = e- mu-
define vl = ve vm vt
define vl~ = ve~ vm~ vt~
set group_subprocesses Auto
set ignore_six_quark_processes False
set loop_color_flows False
set gauge unitary
set complex_mass_scheme False
set max_npoint_for_channel 0
import model sm
define p = g u c d s u~ c~ d~ s~
define j = g u c d s u~ c~ d~ s~
define l+ = e+ mu+
define l- = e- mu-
define vl = ve vm vt
define vl~ = ve~ vm~ vt~
set group_subprocesses Auto
set ignore_six_quark_processes False
set loop_optimized_output True
set complex_mass_scheme False
generate    p p > z z j j QED=2, z > e+ e-, z > mu+ mu-
output ZZjj_2e_2mu_qcd_v1
</MG5ProcCard>
<MGProcCard>
#*********************************************************************
#                        MadGraph/MadEvent                           *
#                   http://madgraph.hep.uiuc.edu                     *
#                                                                    *
#                          proc_card.dat                             *
#*********************************************************************
#                                                                    *
#            This Files is generated by MADGRAPH 5                   *
#                                                                    *
# WARNING: This Files is generated for MADEVENT (compatibility issue)*
#          This files is NOT a valid MG4 proc_card.dat               *
#          Running this in MG4 will NEVER reproduce the result of MG5*
#                                                                    *
#*********************************************************************
#*********************************************************************
# Process(es) requested : mg2 input                                  *
#*********************************************************************
# Begin PROCESS # This is TAG. Do not modify this line
p p > z z j j , z > e+ e- , z > mu+ mu-           #Process
# Be carefull the coupling are here in MG5 convention
QED=2
          
end_coup           # End the couplings input

done               # this tells MG there are no more procs
# End PROCESS  # This is TAG. Do not modify this line
#*********************************************************************
# Model information                                                  *
#*********************************************************************
# Begin MODEL  # This is TAG. Do not modify this line
sm
# End   MODEL  # This is TAG. Do not modify this line
#*********************************************************************
# Start multiparticle definitions                                    *
#*********************************************************************
# Begin MULTIPARTICLES # This is TAG. Do not modify this line

# End  MULTIPARTICLES # This is TAG. Do not modify this line
</MGProcCard>
<MGRunCard>
#*********************************************************************
#                       MadGraph5_aMC@NLO                            *
#                                                                    *
#                     run_card.dat MadEvent                          *
#                                                                    *
#  This file is used to set the parameters of the run.               *
#                                                                    *
#  Some notation/conventions:                                        *
#                                                                    *
#   Lines starting with a '# ' are info or comments                  *
#                                                                    *
#   mind the format:   value    = variable     ! comment             *
#*********************************************************************
#
#*******************                                                 
# Running parameters
#*******************                                                 
#                                                                    
#*********************************************************************
# Tag name for the run (one word)                                    *
#*********************************************************************
  tag_1     = run_tag ! name of the run 
#*********************************************************************
# Run to generate the grid pack                                      *
#*********************************************************************
  False     = gridpack  !True = setting up the grid pack
#*********************************************************************
# Number of events and rnd seed                                      *
# Warning: Do not generate more than 1M events in a single run       *
# If you want to run Pythia, avoid more than 50k events in a run.    *
#*********************************************************************
  40000 = nevents ! Number of unweighted events requested 
 21 = iseed   ! rnd seed (0=assigned automatically=default))
#*********************************************************************
# Collider type and energy                                           *
# lpp: 0=No PDF, 1=proton, -1=antiproton, 2=photon from proton,      *
#                                         3=photon from electron     *
#*********************************************************************
     1        = lpp1    ! beam 1 type 
     1        = lpp2    ! beam 2 type
     6500.0     = ebeam1  ! beam 1 total energy in GeV
     6500.0     = ebeam2  ! beam 2 total energy in GeV
#*********************************************************************
# Beam polarization from -100 (left-handed) to 100 (right-handed)    *
#*********************************************************************
     0.0     = polbeam1 ! beam polarization for beam 1
     0.0     = polbeam2 ! beam polarization for beam 2
#*********************************************************************
# PDF CHOICE: this automatically fixes also alpha_s and its evol.    *
#*********************************************************************
     nn23lo1    = pdlabel     ! PDF set                                     
     230000    = lhaid     ! if pdlabel=lhapdf, this is the lhapdf number
#*********************************************************************
# Renormalization and factorization scales                           *
#*********************************************************************
 False = fixed_ren_scale  ! if .true. use fixed ren scale
 False        = fixed_fac_scale  ! if .true. use fixed fac scale
 91.188  = scale            ! fixed ren scale
 91.188  = dsqrt_q2fact1    ! fixed fact scale for pdf1
 91.188  = dsqrt_q2fact2    ! fixed fact scale for pdf2
 -1 = dynamical_scale_choice ! Choose one of the preselected dynamical choices
 1.0  = scalefact        ! scale factor for event-by-event scales
#*********************************************************************
# Time of flight information. (-1 means not run)
#*********************************************************************
 -1.0 = time_of_flight ! threshold below which info is not written
#*********************************************************************
# Matching - Warning! ickkw > 1 is still beta
#*********************************************************************
 0 = ickkw            ! 0 no matching, 1 MLM, 2 CKKW matching
 1 = highestmult      ! for ickkw=2, highest mult group
 1 = ktscheme         ! for ickkw=1, 1 Durham kT, 2 Pythia pTE
 1.0 = alpsfact         ! scale factor for QCD emission vx
 False = chcluster        ! cluster only according to channel diag
 True = pdfwgt           ! for ickkw=1, perform pdf reweighting
 4 = asrwgtflavor     ! highest quark flavor for a_s reweight
 True = clusinfo         ! include clustering tag in output
 3.0 = lhe_version       ! Change the way clustering information pass to shower.        
#*********************************************************************
#**********************************************************
#
#**********************************************************
# Automatic ptj and mjj cuts if xqcut > 0
# (turn off for VBF and single top processes)
#**********************************************************
   False  = auto_ptj_mjj  ! Automatic setting of ptj and mjj
#**********************************************************
#                                                                    
#**********************************
# BW cutoff (M+/-bwcutoff*Gamma)
#**********************************
  15.0  = bwcutoff      ! (M+/-bwcutoff*Gamma)
#**********************************************************
# Apply pt/E/eta/dr/mij/kt_durham cuts on decay products or not
# (note that etmiss/ptll/ptheavy/ht/sorted cuts always apply)
#*************************************************************
   False  = cut_decays    ! Cut decay products 
#*************************************************************
# Number of helicities to sum per event (0 = all helicities)
# 0 gives more stable result, but longer run time (needed for
# long decay chains e.g.).
# Use >=2 if most helicities contribute, e.g. pure QCD.
#*************************************************************
   0  = nhel          ! Number of helicities used per event
#*******************                                                 
# Standard Cuts
#*******************                                                 
#                                                                    
#*********************************************************************
# Minimum and maximum pt's (for max, -1 means no cut)                *
#*********************************************************************
 10.0  = ptj       ! minimum pt for the jets 
 0.0  = ptb       ! minimum pt for the b 
 10.0  = pta       ! minimum pt for the photons 
 3.0  = ptl       ! minimum pt for the charged leptons 
 0.0  = misset    ! minimum missing Et (sum of neutrino's momenta)
 0.0  = ptheavy   ! minimum pt for one heavy final state
 -1.0  = ptjmax    ! maximum pt for the jets
 -1.0  = ptbmax    ! maximum pt for the b
 -1.0  = ptamax    ! maximum pt for the photons
 -1.0  = ptlmax    ! maximum pt for the charged leptons
 -1.0  = missetmax ! maximum missing Et (sum of neutrino's momenta)
#*********************************************************************
# Minimum and maximum E's (in the center of mass frame)              *
#*********************************************************************
  0.0  = ej     ! minimum E for the jets 
  0.0  = eb     ! minimum E for the b 
  0.0  = ea     ! minimum E for the photons 
  0.0  = el     ! minimum E for the charged leptons 
  -1.0   = ejmax ! maximum E for the jets
 -1.0   = ebmax ! maximum E for the b
 -1.0   = eamax ! maximum E for the photons
 -1.0   = elmax ! maximum E for the charged leptons
#*********************************************************************
# Maximum and minimum absolute rapidity (for max, -1 means no cut)   *
#*********************************************************************
  5.0 = etaj    ! max rap for the jets 
  -1.0  = etab    ! max rap for the b
 2.5  = etaa    ! max rap for the photons 
 3.0  = etal    ! max rap for the charged leptons 
 0.0  = etajmin ! min rap for the jets
 0.0  = etabmin ! min rap for the b
 0.0  = etaamin ! min rap for the photons
 0.0  = etalmin ! main rap for the charged leptons
#*********************************************************************
# Minimum and maximum DeltaR distance                                *
#*********************************************************************
 0.4 = drjj    ! min distance between jets 
 0.0   = drbb    ! min distance between b's 
 0.  = drll    ! min distance between leptons 
 0.4 = draa    ! min distance between gammas 
 0.0   = drbj    ! min distance between b and jet 
 0.4 = draj    ! min distance between gamma and jet 
 0.4 = drjl    ! min distance between jet and lepton 
 0.0   = drab    ! min distance between gamma and b 
 0.0   = drbl    ! min distance between b and lepton 
 0.4 = dral    ! min distance between gamma and lepton 
 -1.0  = drjjmax ! max distance between jets
 -1.0  = drbbmax ! max distance between b's
 -1.0  = drllmax ! max distance between leptons
 -1.0  = draamax ! max distance between gammas
 -1.0  = drbjmax ! max distance between b and jet
 -1.0  = drajmax ! max distance between gamma and jet
 -1.0  = drjlmax ! max distance between jet and lepton
 -1.0  = drabmax ! max distance between gamma and b
 -1.0  = drblmax ! max distance between b and lepton
 -1.0  = dralmax ! maxdistance between gamma and lepton
#*********************************************************************
# Minimum and maximum invariant mass for pairs                       *
# WARNING: for four lepton final state mmll cut require to have      *
#          different lepton masses for each flavor!                  *           
#*********************************************************************
 0.0   = mmjj    ! min invariant mass of a jet pair 
 0.0   = mmbb    ! min invariant mass of a b pair 
 0.0   = mmaa    ! min invariant mass of gamma gamma pair
 4.0   = mmll    ! min invariant mass of l+l- (same flavour) lepton pair
 -1.0  = mmjjmax ! max invariant mass of a jet pair
 -1.0  = mmbbmax ! max invariant mass of a b pair
 -1.0  = mmaamax ! max invariant mass of gamma gamma pair
 -1.0  = mmllmax ! max invariant mass of l+l- (same flavour) lepton pair
#*********************************************************************
# Minimum and maximum invariant mass for all letpons                 *
#*********************************************************************
 0.0   = mmnl    ! min invariant mass for all letpons (l+- and vl) 
 -1.0  = mmnlmax ! max invariant mass for all letpons (l+- and vl) 
#*********************************************************************
# Minimum and maximum pt for 4-momenta sum of leptons                *
#*********************************************************************
 0.0   = ptllmin  ! Minimum pt for 4-momenta sum of leptons(l and vl)
 -1.0  = ptllmax  ! Maximum pt for 4-momenta sum of leptons(l and vl)
#*********************************************************************
# Inclusive cuts                                                     *
#*********************************************************************
 0.0  = xptj ! minimum pt for at least one jet  
 0.0  = xptb ! minimum pt for at least one b 
 0.0  = xpta ! minimum pt for at least one photon 
 0.0  = xptl ! minimum pt for at least one charged lepton 
#*********************************************************************
# Control the pt's of the jets sorted by pt                          *
#*********************************************************************
 0.0   = ptj1min ! minimum pt for the leading jet in pt
 0.0   = ptj2min ! minimum pt for the second jet in pt
 0.0   = ptj3min ! minimum pt for the third jet in pt
 0.0   = ptj4min ! minimum pt for the fourth jet in pt
 -1.0  = ptj1max ! maximum pt for the leading jet in pt 
 -1.0  = ptj2max ! maximum pt for the second jet in pt
 -1.0  = ptj3max ! maximum pt for the third jet in pt
 -1.0  = ptj4max ! maximum pt for the fourth jet in pt
 0   = cutuse  ! reject event if fails any (0) / all (1) jet pt cuts
#*********************************************************************
# Control the pt's of leptons sorted by pt                           *
#*********************************************************************
 0.0   = ptl1min ! minimum pt for the leading lepton in pt
 0.0   = ptl2min ! minimum pt for the second lepton in pt
 0.0   = ptl3min ! minimum pt for the third lepton in pt
 0.0   = ptl4min ! minimum pt for the fourth lepton in pt
 -1.0  = ptl1max ! maximum pt for the leading lepton in pt 
 -1.0  = ptl2max ! maximum pt for the second lepton in pt
 -1.0  = ptl3max ! maximum pt for the third lepton in pt
 -1.0  = ptl4max ! maximum pt for the fourth lepton in pt
#*********************************************************************
# Control the Ht(k)=Sum of k leading jets                            *
#*********************************************************************
 0.0   = htjmin ! minimum jet HT=Sum(jet pt)
 -1.0  = htjmax ! maximum jet HT=Sum(jet pt)
 0.0   = ihtmin  !inclusive Ht for all partons (including b)
 -1.0  = ihtmax  !inclusive Ht for all partons (including b)
 0.0   = ht2min ! minimum Ht for the two leading jets
 0.0   = ht3min ! minimum Ht for the three leading jets
 0.0   = ht4min ! minimum Ht for the four leading jets
 -1.0  = ht2max ! maximum Ht for the two leading jets
 -1.0  = ht3max ! maximum Ht for the three leading jets
 -1.0  = ht4max ! maximum Ht for the four leading jets
#***********************************************************************
# Photon-isolation cuts, according to hep-ph/9801442                   *
# When ptgmin=0, all the other parameters are ignored                  *
# When ptgmin>0, pta and draj are not going to be used                 *
#***********************************************************************
 0.0 = ptgmin ! Min photon transverse momentum
 0.4 = R0gamma ! Radius of isolation code
 1.0 = xn ! n parameter of eq.(3.4) in hep-ph/9801442
 1.0 = epsgamma ! epsilon_gamma parameter of eq.(3.4) in hep-ph/9801442
 True = isoEM ! isolate photons from EM energy (photons and leptons)
#*********************************************************************
# WBF cuts                                                           *
#*********************************************************************
 0.0   = xetamin ! minimum rapidity for two jets in the WBF case  
 0.0   = deltaeta ! minimum rapidity for two jets in the WBF case 
#*********************************************************************
# KT DURHAM CUT                                                      *
#*********************************************************************
 -1.0    =  ktdurham        
 0.4  =  dparameter 
#*********************************************************************
# maximal pdg code for quark to be considered as a light jet         *
# (otherwise b cuts are applied)                                     *
#*********************************************************************
 4 = maxjetflavor    ! Maximum jet pdg code
#*********************************************************************
# Jet measure cuts                                                   *
#*********************************************************************
 0.0   = xqcut   ! minimum kt jet measure between partons
#*********************************************************************
#
#*********************************************************************
# Store info for systematics studies                                 *
# WARNING: If use_syst is T, matched Pythia output is                *
#          meaningful ONLY if plotted taking matchscale              *
#          reweighting into account!                                 *
#*********************************************************************
   True  = use_syst      ! Enable systematics studies
#
#**************************************
# Parameter of the systematics study
#  will be used by SysCalc (if installed)
#**************************************                                  
#
0.5 1 2 = sys_scalefact  # factorization/renormalization scale factor
0.5 1 2 = sys_alpsfact  # \alpha_s emission scale factors
30 50 = sys_matchscale # variation of merging scale
# PDF sets and number of members (0 or none for all members).
Ct10nlo.LHgrid = sys_pdf # matching scales
# MSTW2008nlo68cl.LHgrid 1  = sys_pdf
</MGRunCard>
<slha>
######################################################################
## PARAM_CARD AUTOMATICALY GENERATED BY MG5 FOLLOWING UFO MODEL   ####
######################################################################
##                                                                  ##
##  Width set on Auto will be computed following the information    ##
##        present in the decay.py files of the model.               ##
##        See  arXiv:1402.1178 for more details.                    ##
##                                                                  ##
######################################################################

###################################
## INFORMATION FOR MASS
###################################
Block mass 
    5 4.700000e+00 # MB 
    6 1.730000e+02 # MT 
   15 1.777000e+00 # MTA 
   23 9.118800e+01 # MZ 
   25 1.250000e+02 # MH 
## Dependent parameters, given by model restrictions.
## Those values should be edited following the 
## analytical expression. MG5 ignores those values 
## but they are important for interfacing the output of MG5
## to external program such as Pythia.
  1 0.000000 # d : 0.0 
  2 0.000000 # u : 0.0 
  3 0.000000 # s : 0.0 
  4 0.000000 # c : 0.0 
  11 0.000000 # e- : 0.0 
  12 0.000000 # ve : 0.0 
  13 0.000000 # mu- : 0.0 
  14 0.000000 # vm : 0.0 
  16 0.000000 # vt : 0.0 
  21 0.000000 # g : 0.0 
  22 0.000000 # a : 0.0 
  24 80.419002 # w+ : cmath.sqrt(MZ__exp__2/2. + cmath.sqrt(MZ__exp__4/4. - (aEW*cmath.pi*MZ__exp__2)/(Gf*sqrt__2))) 

###################################
## INFORMATION FOR SMINPUTS
###################################
Block sminputs 
    1 1.325070e+02 # aEWM1 
    2 1.166390e-05 # Gf 
    3 1.180000e-01 # aS 

###################################
## INFORMATION FOR YUKAWA
###################################
Block yukawa 
    5 4.700000e+00 # ymb 
    6 1.730000e+02 # ymt 
   15 1.777000e+00 # ymtau 

###################################
## INFORMATION FOR DECAY
###################################
DECAY   6 1.491500e+00 # WT 
DECAY  23 2.441404e+00 # WZ 
DECAY  24 2.047600e+00 # WW 
DECAY  25 6.382339e-03 # WH 
## Dependent parameters, given by model restrictions.
## Those values should be edited following the 
## analytical expression. MG5 ignores those values 
## but they are important for interfacing the output of MG5
## to external program such as Pythia.
DECAY  1 0.000000 # d : 0.0 
DECAY  2 0.000000 # u : 0.0 
DECAY  3 0.000000 # s : 0.0 
DECAY  4 0.000000 # c : 0.0 
DECAY  5 0.000000 # b : 0.0 
DECAY  11 0.000000 # e- : 0.0 
DECAY  12 0.000000 # ve : 0.0 
DECAY  13 0.000000 # mu- : 0.0 
DECAY  14 0.000000 # vm : 0.0 
DECAY  15 0.000000 # ta- : 0.0 
DECAY  16 0.000000 # vt : 0.0 
DECAY  21 0.000000 # g : 0.0 
DECAY  22 0.000000 # a : 0.0
</slha>
## END BANNER##
<MGGenerationInfo>
#  Number of Events        :        40000
#  Integrated weight (pb)  :  0.13475E-01
#  Truncated wgt (pb)      :  0.79779E-05
#  Unit wgt                :  0.33688E-06
</MGGenerationInfo>
</header>
<init>
     2212     2212  0.65000000000E+04  0.65000000000E+04 0 0  247000  247000  3   1
  0.13473223339E-01  0.16131872754E-04  0.33687500000E-06   0
<generator name='MadGraph5_aMC@NLO' version='#5.2.3.2.2'>please cite 1405.0301 </generator>
</init>
<event>
10   0  0.3368750E-06  0.1006797E+03  0.7546771E-02  0.1279928E+00
       -2   -1    0    0    0  501  0.00000000000E+00  0.00000000000E+00  0.13337673507E+04  0.13337673507E+04  0.00000000000E+00 0.  1.
       21   -1    0    0  501  502  0.00000000000E+00  0.00000000000E+00 -0.26530006230E+02  0.26530006230E+02  0.00000000000E+00 0. -1.
       23    2    1    2    0    0  0.11309227059E+02 -0.78491610617E+02  0.39218346188E+03  0.41032153742E+03  0.90923400458E+02 0.  0.
       23    2    1    2    0    0 -0.40334468801E+02 -0.15334250781E+01  0.73387285034E+03  0.74085422536E+03  0.93093512116E+02 0.  0.
      -11    1    4    4    0    0  0.30513928074E+02  0.52631773639E+00  0.20841300563E+03  0.21063560415E+03  0.00000000000E+00 0.  1.
       11    1    4    4    0    0 -0.70848396875E+02 -0.20597428145E+01  0.52545984471E+03  0.53021862122E+03  0.00000000000E+00 0. -1.
      -13    1    3    3    0    0 -0.78316128703E+01  0.14936021020E+02  0.13455955761E+03  0.13561229085E+03  0.00000000000E+00 0.  1.
       13    1    3    3    0    0  0.19140839929E+02 -0.93427631637E+02  0.25762390427E+03  0.27470924658E+03  0.00000000000E+00 0. -1.
       21    1    1    2  503  502  0.13046755499E+01  0.25947668474E+02  0.10635518188E+02  0.28073081852E+02  0.00000000000E+00 0. -1.
       -2    1    1    2    0  503  0.27720566192E+02  0.54077367222E+02  0.17054551402E+03  0.18104851225E+03  0.00000000000E+00 0.  1.
<mgrwt>
<rscale>  2 0.10017516E+03</rscale>
<asrwt>0</asrwt>
<pdfrwt beam="1">  1       21 0.40815394E-02 0.10067972E+03</pdfrwt>
<pdfrwt beam="2">  1       -2 0.20519498E+00 0.10067972E+03</pdfrwt>
<totfact> 0.42361765E+03</totfact>
</mgrwt>
</event>
<event>
10   0  0.3368750E-06  0.1190288E+03  0.7546771E-02  0.1246433E+00
       -2   -1    0    0    0  501  0.00000000000E+00  0.00000000000E+00  0.80900116943E+02  0.80900116943E+02  0.00000000000E+00 0.  1.
        2   -1    0    0  502    0  0.00000000000E+00  0.00000000000E+00 -0.36578926459E+03  0.36578926459E+03  0.00000000000E+00 0. -1.
       23    2    1    2    0    0 -0.63060410920E+02  0.87524638847E+02 -0.10639704480E+03  0.17602738012E+03  0.89599830244E+02 0.  0.
       23    2    1    2    0    0  0.16561726932E+01 -0.55084122670E+02 -0.53263796771E+02  0.12187091589E+03  0.94754865918E+02 0.  0.
      -11    1    3    3    0    0 -0.85895549799E+02  0.62711280211E+02 -0.77130970991E+02  0.13137707877E+03  0.00000000000E+00 0.  1.
       11    1    3    3    0    0  0.22835138878E+02  0.24813358636E+02 -0.29266073804E+02  0.44650301346E+02  0.00000000000E+00 0. -1.
      -13    1    4    4    0    0  0.13092546115E+02 -0.52654218495E+02 -0.77707377267E+02  0.94775091511E+02  0.00000000000E+00 0. -1.
       13    1    4    4    0    0 -0.11436373422E+02 -0.24299041751E+01  0.24443580496E+02  0.27095824380E+02  0.00000000000E+00 0.  1.
       21    1    1    2  502  503  0.29254449511E+02 -0.38941429123E+01 -0.84745011737E+02  0.89736860762E+02  0.00000000000E+00 0. -1.
       21    1    1    2  503  501  0.32149788716E+02 -0.28546373264E+02 -0.40483294340E+02  0.59054224757E+02  0.00000000000E+00 0. -1.
<mgrwt>
<rscale>  2 0.11800019E+03</rscale>
<asrwt>0</asrwt>
<pdfrwt beam="1">  1        2 0.56275271E-01 0.11902880E+03</pdfrwt>
<pdfrwt beam="2">  1       -2 0.12446172E-01 0.11902880E+03</pdfrwt>
<totfact> 0.39320897E+03</totfact>
</mgrwt>
</event>
<event>
10   0  0.3368750E-06  0.1998277E+03  0.7546771E-02  0.1155470E+00
        1   -1    0    0  501    0  0.00000000000E+00  0.00000000000E+00  0.56921586833E+03  0.56921586833E+03  0.00000000000E+00 0. -1.
        4   -1    0    0  502    0  0.00000000000E+00  0.00000000000E+00 -0.96682622202E+03  0.96682622202E+03  0.00000000000E+00 0.  1.
       23    2    1    2    0    0 -0.96058146454E+02  0.11532285623E+03  0.21750478071E+03  0.27993215037E+03  0.92342571502E+02 0.  0.
       23    2    1    2    0    0  0.77004003727E+02 -0.10508089086E+03  0.27419549771E+03  0.32049953573E+03  0.10278701875E+03 0.  0.
      -11    1    4    4    0    0 -0.12060948818E+02 -0.66232116371E+02  0.91847136128E+02  0.11387737326E+03  0.00000000000E+00 0. -1.
       11    1    4    4    0    0  0.89064952546E+02 -0.38848774484E+02  0.18234836158E+03  0.20662216247E+03  0.00000000000E+00 0.  1.
      -13    1    3    3    0    0 -0.64383107646E+02  0.10261407190E+03  0.98504736378E+02  0.15613460664E+03  0.00000000000E+00 0.  1.
       13    1    3    3    0    0 -0.31675038808E+02  0.12708784327E+02  0.11900004433E+03  0.12379754373E+03  0.00000000000E+00 0. -1.
        4    1    1    2  501    0 -0.77530763582E+01 -0.10001852026E+02 -0.90464018635E+03  0.90472869635E+03  0.00000000000E+00 0.  1.
        1    1    1    2  502    0  0.26807219085E+02 -0.24011334568E+00  0.15329554236E+02  0.30881707896E+02  0.00000000000E+00 0. -1.
<mgrwt>
<rscale>  2 0.19335478E+03</rscale>
<asrwt>0</asrwt>
<pdfrwt beam="1">  1        4 0.14874250E+00 0.19982767E+03</pdfrwt>
<pdfrwt beam="2">  1        1 0.87571672E-01 0.19982767E+03</pdfrwt>
<totfact> 0.57186965E+00</totfact>
</mgrwt>
</event>
<event>
10   0  0.3368750E-06  0.1597172E+03  0.7546771E-02  0.1195852E+00
       21   -1    0    0  503  502  0.00000000000E+00  0.00000000000E+00  0.10479480021E+03  0.10479480021E+03  0.00000000000E+00 0. -1.
        1   -1    0    0  502    0  0.00000000000E+00  0.00000000000E+00 -0.20799315114E+04  0.20799315114E+04  0.00000000000E+00 0. -1.
       23    2    1    2    0    0  0.42370176028E+02 -0.87799057797E+02 -0.16253753789E+04  0.16311011955E+04  0.95614232383E+02 0.  0.
       23    2    1    2    0    0  0.90997382589E+02  0.62713375711E+02 -0.27734493241E+03  0.31213525113E+03  0.91075311322E+02 0.  0.
      -11    1    4    4    0    0  0.74456807713E+02  0.83484219548E+02 -0.18636538262E+03  0.21736026998E+03  0.00000000000E+00 0.  1.
       11    1    4    4    0    0  0.16540574876E+02 -0.20770843838E+02 -0.90979549789E+02  0.94774981143E+02  0.00000000000E+00 0. -1.
      -13    1    3    3    0    0  0.27664513594E+02 -0.10239641722E+03 -0.15207076222E+04  0.15244021857E+04  0.00000000000E+00 0. -1.
       13    1    3    3    0    0  0.14705662433E+02  0.14597359419E+02 -0.10466775671E+03  0.10669900985E+03  0.00000000000E+00 0.  1.
       21    1    1    2  503  501 -0.17293683408E+03  0.49459375841E+02 -0.38469693231E+02  0.18393829329E+03  0.00000000000E+00 0. -1.
        1    1    1    2  501    0  0.39569275461E+02 -0.24373693755E+02 -0.33946706702E+02  0.57551571687E+02  0.00000000000E+00 0. -1.
<mgrwt>
<rscale>  2 0.15382350E+03</rscale>
<asrwt>0</asrwt>
<pdfrwt beam="1">  1       21 0.16122277E-01 0.15971718E+03</pdfrwt>
<pdfrwt beam="2">  1        1 0.31998946E+00 0.15971718E+03</pdfrwt>
<totfact> 0.12071236E+03</totfact>
</mgrwt>
</event>
<event>
10   0  0.3368750E-06  0.1167534E+03  0.7546771E-02  0.1249922E+00
        1   -1    0    0  503    0  0.00000000000E+00  0.00000000000E+00  0.85164784208E+03  0.85164784208E+03  0.00000000000E+00 0. -1.
       21   -1    0    0  501  502  0.00000000000E+00  0.00000000000E+00 -0.86301253417E+02  0.86301253417E+02  0.00000000000E+00 0.  1.
       23    2    1    2    0    0  0.32474644848E+02 -0.63887203709E+02  0.54178378777E+03  0.55354992397E+03  0.88043558973E+02 0.  0.
       23    2    1    2    0    0  0.51438837580E+01  0.37336307634E+02 -0.29228543162E+02  0.10370091802E+03  0.92082100627E+02 0.  0.
      -11    1    4    4    0    0  0.18570531252E+02  0.64113833289E+02 -0.85340078459E+01  0.67292477588E+02  0.00000000000E+00 0.  1.
       11    1    4    4    0    0 -0.13426647494E+02 -0.26777525655E+02 -0.20694535316E+02  0.36408440437E+02  0.00000000000E+00 0. -1.
      -13    1    3    3    0    0  0.53851161548E+02 -0.12665910279E+02  0.21045146727E+03  0.21760099485E+03  0.00000000000E+00 0.  1.
       13    1    3    3    0    0 -0.21376516700E+02 -0.51221293431E+02  0.33133232050E+03  0.33594892911E+03  0.00000000000E+00 0. -1.
       21    1    1    2  503  502 -0.56003680183E+02 -0.13749160445E+02  0.21459560634E+03  0.22220874390E+03  0.00000000000E+00 0. -1.
        1    1    1    2  501    0  0.18385151577E+02  0.40300056520E+02  0.38195737716E+02  0.58489509604E+02  0.00000000000E+00 0. -1.
<mgrwt>
<rscale>  2 0.11595574E+03</rscale>
<asrwt>0</asrwt>
<pdfrwt beam="1">  1       21 0.13277116E-01 0.11675338E+03</pdfrwt>
<pdfrwt beam="2">  1        1 0.13102274E+00 0.11675338E+03</pdfrwt>
<totfact> 0.11673086E+04</totfact>
</mgrwt>
</event>
<event>
10   0  0.3368750E-06  0.1050122E+03  0.7546771E-02  0.1270687E+00
        2   -1    0    0  502    0  0.00000000000E+00  0.00000000000E+00  0.51881856811E+03  0.51881856811E+03  0.00000000000E+00 0. -1.
       21   -1    0    0  503  502  0.00000000000E+00  0.00000000000E+00 -0.56301866121E+02  0.56301866121E+02  0.00000000000E+00 0. -1.
       23    2    1    2    0    0  0.53176625336E+02  0.40229817644E+02  0.35524750879E+03  0.37327842740E+03  0.93219097555E+02 0.  0.
       23    2    1    2    0    0 -0.59259638664E+01 -0.12926190600E+02  0.10562308468E+03  0.14070889556E+03  0.91872486739E+02 0.  0.
      -11    1    3    3    0    0  0.61541382985E+02  0.64374374887E+02  0.27525731613E+03  0.28930605255E+03  0.00000000000E+00 0. -1.
       11    1    3    3    0    0 -0.83647576484E+01 -0.24144557242E+02  0.79990192664E+02  0.83972374847E+02  0.00000000000E+00 0.  1.
      -13    1    4    4    0    0 -0.59615431828E+01  0.26240565410E+02 -0.11958339057E+01  0.26935799392E+02  0.00000000000E+00 0.  1.
       13    1    4    4    0    0  0.35579316387E-01 -0.39166756010E+02  0.10681891859E+03  0.11377309617E+03  0.00000000000E+00 0. -1.
       21    1    1    2  503  501 -0.98862616825E+01  0.46893947472E+01 -0.39337705774E+01  0.11627688683E+02  0.00000000000E+00 0. -1.
        2    1    1    2  501    0 -0.37364399787E+02 -0.31993021792E+02  0.55798790842E+01  0.49505422586E+02  0.00000000000E+00 0. -1.
<mgrwt>
<rscale>  2 0.10471254E+03</rscale>
<asrwt>0</asrwt>
<pdfrwt beam="1">  1       21 0.86618256E-02 0.10501220E+03</pdfrwt>
<pdfrwt beam="2">  1        2 0.79818241E-01 0.10501220E+03</pdfrwt>
<totfact> 0.77443816E+04</totfact>
</mgrwt>
</event>
<event>
10   0  0.3368750E-06  0.1132418E+03  0.7546771E-02  0.1258189E+00
       21   -1    0    0  501  502  0.00000000000E+00  0.00000000000E+00  0.18129100371E+04  0.18129100371E+04  0.00000000000E+00 0.  1.
       21   -1    0    0  502  503  0.00000000000E+00  0.00000000000E+00 -0.10810145367E+02  0.10810145367E+02  0.00000000000E+00 0. -1.
       23    2    1    2    0    0  0.48094730505E+02 -0.58755117763E+02  0.48864846489E+03  0.50055122887E+03  0.77517375616E+02 0.  0.
       23    2    1    2    0    0 -0.33501380070E+02  0.51431185064E+02  0.90612432263E+03  0.91241343686E+03  0.87575581253E+02 0.  0.
      -11    1    4    4    0    0  0.16304434972E+02  0.48228901907E+02  0.60922941090E+03  0.61135287411E+03  0.00000000000E+00 0.  1.
       11    1    4    4    0    0 -0.49805815042E+02  0.32022831568E+01  0.29689491173E+03  0.30106056274E+03  0.00000000000E+00 0. -1.
      -13    1    3    3    0    0  0.40535944940E+02 -0.24678984868E+02  0.42762689443E+03  0.43025222367E+03  0.00000000000E+00 0.  1.
       13    1    3    3    0    0  0.75587855647E+01 -0.34076132895E+02  0.61021570455E+02  0.70299005207E+02  0.00000000000E+00 0. -1.
        1    1    1    2  501    0 -0.10205439724E+02  0.16394518781E+02  0.39160988782E+03  0.39208575017E+03  0.00000000000E+00 0. -1.
       -1    1    1    2    0  503 -0.43879107102E+01 -0.90705860818E+01  0.15717216345E+02  0.18669766520E+02  0.00000000000E+00 0.  1.
<mgrwt>
<rscale>  2 0.11129577E+03</rscale>
<asrwt>0</asrwt>
<pdfrwt beam="1">  1       21 0.27890924E+00 0.11324184E+03</pdfrwt>
<pdfrwt beam="2">  1       21 0.16630993E-02 0.11324184E+03</pdfrwt>
<totfact> 0.80777026E+04</totfact>
</mgrwt>
</event>
<event>
10   0  0.3368750E-06  0.1392574E+03  0.7546771E-02  0.1228794E+00
       21   -1    0    0  503  502  0.00000000000E+00  0.00000000000E+00  0.10006709319E+03  0.10006709319E+03  0.00000000000E+00 0.  1.
        1   -1    0    0  502    0  0.00000000000E+00  0.00000000000E+00 -0.18130615587E+03  0.18130615587E+03  0.00000000000E+00 0. -1.
       23    2    1    2    0    0  0.31220721711E+02  0.37706420489E+02 -0.75859760997E+02  0.12786993589E+03  0.90551143314E+02 0.  0.
       23    2    1    2    0    0 -0.21559006618E+01 -0.24942070323E+02 -0.30528502810E+02  0.98681119058E+02  0.90439034686E+02 0.  0.
      -11    1    4    4    0    0  0.60686963954E+01 -0.74113221258E+01  0.31905860853E+02  0.33312771250E+02  0.00000000000E+00 0.  1.
       11    1    4    4    0    0 -0.82245970572E+01 -0.17530748198E+02 -0.62434363663E+02  0.65368347808E+02  0.00000000000E+00 0. -1.
      -13    1    3    3    0    0  0.49060688230E+02 -0.10617124940E+02 -0.47301039528E+02  0.68971463751E+02  0.00000000000E+00 0. -1.
       13    1    3    3    0    0 -0.17839966519E+02  0.48323545429E+02 -0.28558721469E+02  0.58898472138E+02  0.00000000000E+00 0.  1.
       21    1    1    2  503  501  0.80168703648E+01 -0.77706431302E+01  0.75159225405E+01  0.13458907710E+02  0.00000000000E+00 0.  1.
        1    1    1    2  501    0 -0.37081691414E+02 -0.49937070356E+01  0.17633278587E+02  0.41363286400E+02  0.00000000000E+00 0. -1.
<mgrwt>
<rscale>  2 0.12910209E+03</rscale>
<asrwt>0</asrwt>
<pdfrwt beam="1">  1       21 0.15394937E-01 0.13925740E+03</pdfrwt>
<pdfrwt beam="2">  1        1 0.27893255E-01 0.13925740E+03</pdfrwt>
<totfact> 0.66931758E+04</totfact>
</mgrwt>
</event>
<event>
10   0  0.3368750E-06  0.2664388E+03  0.7546771E-02  0.1128801E+00
       -1   -1    0    0    0  501  0.00000000000E+00  0.00000000000E+00  0.54108902079E+03  0.54108902079E+03  0.00000000000E+00 0.  1.
        1   -1    0    0  503    0  0.00000000000E+00  0.00000000000E+00 -0.48840834222E+03  0.48840834222E+03  0.00000000000E+00 0. -1.
       23    2    1    2    0    0 -0.16375439575E+03 -0.13710604515E+03  0.10811318314E+03  0.25628814909E+03  0.91550998092E+02 0.  0.
       23    2    1    2    0    0 -0.96776880783E+02  0.83295749247E+02 -0.33757466831E+03  0.36555819561E+03  0.58070570839E+02 0.  0.
      -11    1    4    4    0    0 -0.77109485600E+02  0.50452801031E+02 -0.29115733628E+03  0.30539147397E+03  0.00000000000E+00 0. -1.
       11    1    4    4    0    0 -0.19667395183E+02  0.32842948216E+02 -0.46417332030E+02  0.60166721646E+02  0.00000000000E+00 0.  1.
      -13    1    3    3    0    0 -0.11407674074E+03 -0.13976712857E+03  0.98737763233E+02  0.20566355753E+03  0.00000000000E+00 0. -1.
       13    1    3    3    0    0 -0.49677655006E+02  0.26610834282E+01  0.93754199117E+01  0.50624591559E+02  0.00000000000E+00 0.  1.
       21    1    1    2  502  501  0.12710762981E+03 -0.31264368505E+02  0.16581568527E+03  0.21125494498E+03  0.00000000000E+00 0.  1.
       21    1    1    2  503  502  0.13342364672E+03  0.85074664404E+02  0.11632647846E+03  0.19639607333E+03  0.00000000000E+00 0.  1.
<mgrwt>
<rscale>  2 0.22695546E+03</rscale>
<asrwt>0</asrwt>
<pdfrwt beam="1">  1        1 0.75139745E-01 0.26643884E+03</pdfrwt>
<pdfrwt beam="2">  1       -1 0.83244465E-01 0.26643884E+03</pdfrwt>
<totfact> 0.70930453E+01</totfact>
</mgrwt>
</event>
<event>
10   0  0.3368750E-06  0.2943458E+03  0.7546771E-02  0.1110120E+00
        2   -1    0    0  502    0  0.00000000000E+00  0.00000000000E+00  0.42428669108E+03  0.42428669108E+03  0.00000000000E+00 0. -1.
       21   -1    0    0  503  502  0.00000000000E+00  0.00000000000E+00 -0.11131994718E+04  0.11131994718E+04  0.00000000000E+00 0. -1.
       23    2    1    2    0    0 -0.97928396959E+02  0.70345350091E+02  0.69275251024E+02  0.16687084450E+03  0.92240875583E+02 0.  0.
       23    2    1    2    0    0  0.90623118993E+01  0.20920711940E+03  0.42979818786E+02  0.23151223428E+03  0.88887037825E+02 0.  0.
      -11    1    3    3    0    0 -0.10983109230E+03  0.79890851191E+02  0.67011902449E+02  0.15144639979E+03  0.00000000000E+00 0.  1.
       11    1    3    3    0    0  0.11902695343E+02 -0.95455010998E+01  0.22633485751E+01  0.15424444705E+02  0.00000000000E+00 0. -1.
      -13    1    4    4    0    0 -0.87669426052E+01  0.10604223513E+02 -0.18310479038E+02  0.22903765663E+02  0.00000000000E+00 0.  1.
       13    1    4    4    0    0  0.17829254505E+02  0.19860289588E+03  0.61290297824E+02  0.20860846861E+03  0.00000000000E+00 0. -1.
       21    1    1    2  503  501 -0.13410808211E+03  0.52796032471E+02 -0.71543402133E+03  0.72980698654E+03  0.00000000000E+00 0. -1.
        2    1    1    2  501    0  0.22297416717E+03 -0.33234850196E+03 -0.85733829158E+02  0.40929609751E+03  0.00000000000E+00 0. -1.
<mgrwt>
<rscale>  2 0.25510500E+03</rscale>
<asrwt>0</asrwt>
<pdfrwt beam="1">  1       21 0.17126146E+00 0.29434577E+03</pdfrwt>
<pdfrwt beam="2">  1        2 0.65274876E-01 0.29434577E+03</pdfrwt>
<totfact> 0.18222198E+02</totfact>
</mgrwt>
</event>
<event>
10   0  0.3368750E-06  0.4169988E+03  0.7546771E-02  0.1059100E+00
        2   -1    0    0  503    0  0.00000000000E+00  0.00000000000E+00  0.14956798400E+04  0.14956798400E+04  0.00000000000E+00 0. -1.
       -2   -1    0    0    0  501  0.00000000000E+00  0.00000000000E+00 -0.19774523053E+03  0.19774523053E+03  0.00000000000E+00 0.  1.
       23    2    1    2    0    0  0.20324276086E+03 -0.28110951016E+03  0.47500921823E+03  0.59550657153E+03  0.93081377207E+02 0.  0.
       23    2    1    2    0    0 -0.87256533151E+02 -0.18772692233E+03  0.28751035067E+03  0.36556706206E+03  0.90122001599E+02 0.  0.
      -11    1    3    3    0    0  0.20950577676E+02 -0.27365586885E+02  0.10879753608E+03  0.11412583366E+03  0.00000000000E+00 0. -1.
       11    1    3    3    0    0  0.18229218319E+03 -0.25374392328E+03  0.36621168215E+03  0.48138073787E+03  0.00000000000E+00 0.  1.
      -13    1    4    4    0    0  0.11151659212E+02 -0.34602164026E+01  0.20803865440E+01  0.11860042534E+02  0.00000000000E+00 0. -1.
       13    1    4    4    0    0 -0.98408192363E+02 -0.18426670593E+03  0.28542996413E+03  0.35370701952E+03  0.00000000000E+00 0.  1.
       21    1    1    2  502  501 -0.16483349059E+02  0.72660462091E+02  0.16453920159E+03  0.18062223675E+03  0.00000000000E+00 0.  1.
       21    1    1    2  503  502 -0.99502878653E+02  0.39617597041E+03  0.37087583893E+03  0.55172920015E+03  0.00000000000E+00 0. -1.
<mgrwt>
<rscale>  2 0.35870033E+03</rscale>
<asrwt>0</asrwt>
<pdfrwt beam="1">  1        2 0.23010459E+00 0.41699875E+03</pdfrwt>
<pdfrwt beam="2">  1       -2 0.30422343E-01 0.41699875E+03</pdfrwt>
<totfact> 0.13453468E+02</totfact>
</mgrwt>
</event>
<event>
10   0  0.3368750E-06  0.1486702E+03  0.7546771E-02  0.1224195E+00
        1   -1    0    0  502    0  0.00000000000E+00  0.00000000000E+00  0.32064079094E+03  0.32064079094E+03  0.00000000000E+00 0. -1.
       21   -1    0    0  503  502  0.00000000000E+00  0.00000000000E+00 -0.12453583229E+03  0.12453583229E+03  0.00000000000E+00 0. -1.
       23    2    1    2    0    0  0.10647656506E+02  0.12305375699E+02 -0.15603343865E+02  0.94314096421E+02  0.91579962785E+02 0.  0.
       23    2    1    2    0    0 -0.51040036667E+02 -0.11658530882E+03  0.16187200127E+03  0.22562072512E+03  0.92222270806E+02 0.  0.
      -11    1    3    3    0    0  0.25824565838E+02 -0.33781836997E+02 -0.16944400068E+02  0.45773719592E+02  0.00000000000E+00 0. -1.
       11    1    3    3    0    0 -0.15176909332E+02  0.46087212696E+02  0.13410562027E+01  0.48540376829E+02  0.00000000000E+00 0.  1.
      -13    1    4    4    0    0 -0.38624367421E+02 -0.15475998934E+01  0.23463642218E+02  0.45219236285E+02  0.00000000000E+00 0.  1.
       13    1    4    4    0    0 -0.12415669246E+02 -0.11503770893E+03  0.13840835905E+03  0.18040148884E+03  0.00000000000E+00 0. -1.
       21    1    1    2  503  501  0.24742052470E+01  0.10277551386E+02 -0.29275467764E+01  0.10969060316E+02  0.00000000000E+00 0. -1.
        1    1    1    2  501    0  0.37918174913E+02  0.94002381739E+02  0.52763848024E+02  0.11427274137E+03  0.00000000000E+00 0. -1.
<mgrwt>
<rscale>  2 0.13222257E+03</rscale>
<asrwt>0</asrwt>
<pdfrwt beam="1">  1       21 0.19159359E-01 0.14867020E+03</pdfrwt>
<pdfrwt beam="2">  1        1 0.49329352E-01 0.14867020E+03</pdfrwt>
<totfact> 0.22119915E+04</totfact>
</mgrwt>
</event>
<event>
10   0  0.3368750E-06  0.1438074E+03  0.7546771E-02  0.1219959E+00
       -1   -1    0    0    0  501  0.00000000000E+00  0.00000000000E+00  0.90727073097E+02  0.90727073097E+02  0.00000000000E+00 0.  1.
        1   -1    0    0  503    0  0.00000000000E+00  0.00000000000E+00 -0.73304030195E+03  0.73304030195E+03  0.00000000000E+00 0. -1.
       23    2    1    2    0    0  0.29422642434E+01 -0.84280090335E+02 -0.51477129446E+03  0.53696981274E+03  0.12741783097E+03 0.  0.
       23    2    1    2    0    0 -0.38180147158E+02  0.37928800346E+02 -0.17733003640E+03  0.20617332219E+03  0.90361382477E+02 0.  0.
      -11    1    3    3    0    0 -0.40589342984E+02  0.13089039631E+01 -0.61915003329E+02  0.74045091875E+02  0.00000000000E+00 0.  1.
       11    1    3    3    0    0  0.43531607228E+02 -0.85588994298E+02 -0.45285629113E+03  0.46292472086E+03  0.00000000000E+00 0. -1.
      -13    1    4    4    0    0 -0.48532427375E+02  0.58689825716E+02 -0.10162956689E+03  0.12699787799E+03  0.00000000000E+00 0.  1.
       13    1    4    4    0    0  0.10352280217E+02 -0.20761025370E+02 -0.75700469510E+02  0.79175444199E+02  0.00000000000E+00 0. -1.
       21    1    1    2  502  501  0.76421787395E+01  0.12047307885E+02  0.13996413681E+00  0.14267449426E+02  0.00000000000E+00 0.  1.
       21    1    1    2  503  502  0.27595704175E+02  0.34303982104E+02  0.49648137865E+02  0.66356790689E+02  0.00000000000E+00 0.  1.
<mgrwt>
<rscale>  2 0.13518463E+03</rscale>
<asrwt>0</asrwt>
<pdfrwt beam="1">  1        1 0.11277543E+00 0.14380742E+03</pdfrwt>
<pdfrwt beam="2">  1       -1 0.13958011E-01 0.14380742E+03</pdfrwt>
<totfact> 0.95174897E+02</totfact>
</mgrwt>
</event>
<event>
10   0  0.3368750E-06  0.9622939E+02  0.7546771E-02  0.1288954E+00
       -1   -1    0    0    0  501  0.00000000000E+00  0.00000000000E+00  0.20510410125E+03  0.20510410125E+03  0.00000000000E+00 0.  1.
        1   -1    0    0  503    0  0.00000000000E+00  0.00000000000E+00 -0.96342193201E+03  0.96342193201E+03  0.00000000000E+00 0. -1.
       23    2    1    2    0    0  0.35802101976E+02 -0.33928709694E+02  0.80674340119E+02  0.13010561931E+03  0.89365402557E+02 0.  0.
       23    2    1    2    0    0  0.22334813533E+01  0.26048742912E+02 -0.79732885498E+03  0.80285921705E+03  0.90366442712E+02 0.  0.
      -11    1    3    3    0    0  0.14503241108E+02 -0.48175770673E+02  0.89776095280E+02  0.10291256564E+03  0.00000000000E+00 0.  1.
       11    1    3    3    0    0  0.21298860868E+02  0.14247060979E+02 -0.91017551606E+01  0.27193053668E+02  0.00000000000E+00 0. -1.
      -13    1    4    4    0    0 -0.13961753996E+01  0.15808432355E+02 -0.20360177493E+02  0.25814582445E+02  0.00000000000E+00 0.  1.
       13    1    4    4    0    0  0.36296567530E+01  0.10240310556E+02 -0.77696867749E+03  0.77704463460E+03  0.00000000000E+00 0. -1.
       21    1    1    2  502  501 -0.28942584632E+02  0.15311977665E+01  0.94552406458E+02  0.98894769017E+02  0.00000000000E+00 0.  1.
       21    1    1    2  503  502 -0.90929986972E+01  0.63487690158E+01 -0.13621572236E+03  0.13666642789E+03  0.00000000000E+00 0.  1.
<mgrwt>
<rscale>  2 0.95993668E+02</rscale>
<asrwt>0</asrwt>
<pdfrwt beam="1">  1        1 0.14821876E+00 0.96229389E+02</pdfrwt>
<pdfrwt beam="2">  1       -1 0.31554477E-01 0.96229389E+02</pdfrwt>
<totfact> 0.16956847E+02</totfact>
</mgrwt>
</event>
<event>
10   0  0.3368750E-06  0.1782357E+03  0.7546771E-02  0.1172374E+00
       21   -1    0    0  501  502  0.00000000000E+00  0.00000000000E+00  0.21332929118E+03  0.21332929118E+03  0.00000000000E+00 0.  1.
       21   -1    0    0  502  503  0.00000000000E+00  0.00000000000E+00 -0.24217124148E+03  0.24217124148E+03  0.00000000000E+00 0. -1.
       23    2    1    2    0    0 -0.14398186107E+03 -0.97180833489E+01 -0.51453598779E+02  0.18888507329E+03  0.11047570151E+03 0.  0.
       23    2    1    2    0    0  0.14574456673E+03 -0.12427201752E+02  0.61360698678E+02  0.18298950058E+03  0.91236549186E+02 0.  0.
      -11    1    3    3    0    0 -0.49531722017E+02  0.37743079289E+02  0.14964935128E+02  0.64045927299E+02  0.00000000000E+00 0.  1.
       11    1    3    3    0    0 -0.94450139053E+02 -0.47461162638E+02 -0.66418533907E+02  0.12483914599E+03  0.00000000000E+00 0. -1.
      -13    1    4    4    0    0  0.15155457696E+03 -0.25043576963E+02  0.67521162760E+02  0.16779474951E+03  0.00000000000E+00 0.  1.
       13    1    4    4    0    0 -0.58100102303E+01  0.12616375211E+02 -0.61604640821E+01  0.15194751069E+02  0.00000000000E+00 0. -1.
        4    1    1    2  501    0 -0.16530203240E+02  0.43359978827E+01  0.16483620713E+02  0.23743593843E+02  0.00000000000E+00 0. -1.
       -4    1    1    2    0  503  0.14767497581E+02  0.17809287218E+02 -0.55232670905E+02  0.59882364945E+02  0.00000000000E+00 0.  1.
<mgrwt>
<rscale>  2 0.17535639E+03</rscale>
<asrwt>0</asrwt>
<pdfrwt beam="1">  1       21 0.32819891E-01 0.17823569E+03</pdfrwt>
<pdfrwt beam="2">  1       21 0.37257114E-01 0.17823569E+03</pdfrwt>
<totfact> 0.62486068E+04</totfact>
</mgrwt>
</event>
<event>
10   0  0.3368750E-06  0.4541510E+03  0.7546771E-02  0.1067720E+00
        2   -1    0    0  503    0  0.00000000000E+00  0.00000000000E+00  0.11173918477E+04  0.11173918477E+04  0.00000000000E+00 0. -1.
       21   -1    0    0  501  502  0.00000000000E+00  0.00000000000E+00 -0.33022622533E+03  0.33022622533E+03  0.00000000000E+00 0. -1.
       23    2    1    2    0    0  0.10150750990E+03  0.26298222940E+02  0.89506328969E+02  0.16467507545E+03  0.90061792425E+02 0.  0.
       23    2    1    2    0    0  0.91997162907E+02  0.39606449259E+03  0.68587486638E+03  0.80255683685E+03  0.91337745575E+02 0.  0.
      -11    1    3    3    0    0 -0.31108289822E+01 -0.22302534516E+02  0.19120751780E+02  0.29541216146E+02  0.00000000000E+00 0.  1.
       11    1    3    3    0    0  0.10461833888E+03  0.48600757456E+02  0.70385577189E+02  0.13513385931E+03  0.00000000000E+00 0. -1.
      -13    1    4    4    0    0 -0.16878715725E+02  0.28639695386E+02  0.47136725798E+02  0.57680101554E+02  0.00000000000E+00 0.  1.
       13    1    4    4    0    0  0.10887587863E+03  0.36742479720E+03  0.63873814058E+03  0.74487673529E+03  0.00000000000E+00 0. -1.
       21    1    1    2  503  502  0.14115272680E+02 -0.18804850491E+02 -0.11046438177E+02  0.25978589670E+02  0.00000000000E+00 0. -1.
        2    1    1    2  501    0 -0.20761994548E+03 -0.40355786504E+03  0.22830865161E+02  0.45440757102E+03  0.00000000000E+00 0. -1.
<mgrwt>
<rscale>  2 0.33783881E+03</rscale>
<asrwt>0</asrwt>
<pdfrwt beam="1">  1       21 0.50804035E-01 0.45415098E+03</pdfrwt>
<pdfrwt beam="2">  1        2 0.17190644E+00 0.45415098E+03</pdfrwt>
<totfact> 0.94744228E+02</totfact>
</mgrwt>
</event>
<event>
10   0  0.3368750E-06  0.1079380E+03  0.7546771E-02  0.1265425E+00
       21   -1    0    0  501  502  0.00000000000E+00  0.00000000000E+00  0.22109367740E+03  0.22109367740E+03  0.00000000000E+00 0. -1.
        1   -1    0    0  503    0  0.00000000000E+00  0.00000000000E+00 -0.43452336669E+03  0.43452336669E+03  0.00000000000E+00 0. -1.
       23    2    1    2    0    0 -0.37993310163E+02 -0.81737783725E+01 -0.35226461214E+03  0.36576139266E+03  0.90447427425E+02 0.  0.
       23    2    1    2    0    0  0.63502287257E+02  0.85704263416E+02  0.10061565522E+03  0.17355850266E+03  0.92850861681E+02 0.  0.
      -11    1    3    3    0    0 -0.31765105560E+01  0.39334729919E+02 -0.14860028449E+03  0.15375095365E+03  0.00000000000E+00 0.  1.
       11    1    3    3    0    0 -0.34816799607E+02 -0.47508508291E+02 -0.20366432765E+03  0.21201043902E+03  0.00000000000E+00 0. -1.
      -13    1    4    4    0    0  0.53799121030E+02  0.98215039108E+02  0.10845247890E+03  0.15589252551E+03  0.00000000000E+00 0. -1.
       13    1    4    4    0    0  0.97031662277E+01 -0.12510775692E+02 -0.78368236777E+01  0.17665977149E+02  0.00000000000E+00 0.  1.
       21    1    1    2  503  502 -0.14682894040E+02 -0.68348033193E+01 -0.18811315241E+02  0.24822721343E+02  0.00000000000E+00 0.  1.
        1    1    1    2  501    0 -0.10826083055E+02 -0.70695681724E+02  0.57030582871E+02  0.91474427417E+02  0.00000000000E+00 0. -1.
<mgrwt>
<rscale>  2 0.10741922E+03</rscale>
<asrwt>0</asrwt>
<pdfrwt beam="1">  1       21 0.34014412E-01 0.10793805E+03</pdfrwt>
<pdfrwt beam="2">  1        1 0.66849749E-01 0.10793805E+03</pdfrwt>
<totfact> 0.51395597E+03</totfact>
</mgrwt>
</event>
<event>
10   0  0.3368750E-06  0.1888514E+03  0.7546771E-02  0.1162290E+00
        2   -1    0    0  502    0  0.00000000000E+00  0.00000000000E+00  0.43426438199E+03  0.43426438199E+03  0.00000000000E+00 0. -1.
       -2   -1    0    0    0  501  0.00000000000E+00  0.00000000000E+00 -0.16711095774E+03  0.16711095774E+03  0.00000000000E+00 0.  1.
       23    2    1    2    0    0 -0.16128806738E+02  0.15255863093E+03  0.14001098179E+03  0.22979550659E+03  0.98329169361E+02 0.  0.
       23    2    1    2    0    0  0.66742734666E+02 -0.12971574717E+03  0.14197131199E+03  0.23546068742E+03  0.11834320512E+03 0.  0.
      -11    1    3    3    0    0 -0.19029338343E+02  0.15143140990E+03  0.15319696177E+03  0.21624730453E+03  0.00000000000E+00 0. -1.
       11    1    3    3    0    0  0.29005316045E+01  0.11272210345E+01 -0.13185979982E+02  0.13548202055E+02  0.00000000000E+00 0.  1.
      -13    1    4    4    0    0  0.17774395129E+02 -0.34752538782E+02  0.12025407667E+03  0.12643065700E+03  0.00000000000E+00 0. -1.
       13    1    4    4    0    0  0.48968339536E+02 -0.94963208388E+02  0.21717235321E+02  0.10903003042E+03  0.00000000000E+00 0.  1.
       21    1    1    2  502  503 -0.60770279522E+02 -0.19239169755E+02  0.43261758885E+02  0.77037343593E+02  0.00000000000E+00 0.  1.
       21    1    1    2  503  501  0.10156351595E+02 -0.36037140062E+01 -0.58090628418E+02  0.59081802125E+02  0.00000000000E+00 0.  1.
<mgrwt>
<rscale>  2 0.18581564E+03</rscale>
<asrwt>0</asrwt>
<pdfrwt beam="1">  1        2 0.66809905E-01 0.18885136E+03</pdfrwt>
<pdfrwt beam="2">  1       -2 0.25709378E-01 0.18885136E+03</pdfrwt>
<totfact> 0.98441526E+02</totfact>
</mgrwt>
</event>
<event>
10   0  0.3368750E-06  0.9491313E+02  0.7546771E-02  0.1292212E+00
        1   -1    0    0  503    0  0.00000000000E+00  0.00000000000E+00  0.13343281918E+04  0.13343281918E+04  0.00000000000E+00 0. -1.
       -1   -1    0    0    0  501  0.00000000000E+00  0.00000000000E+00 -0.23010421274E+02  0.23010421274E+02  0.00000000000E+00 0.  1.
       23    2    1    2    0    0 -0.31222499306E+02  0.29864527533E+02  0.27035539469E+03  0.28856134208E+03  0.91153026506E+02 0.  0.
       23    2    1    2    0    0  0.90726218410E+01 -0.19235148525E+02  0.37519815736E+03  0.38633744797E+03  0.89613966578E+02 0.  0.
      -11    1    4    4    0    0 -0.24859672132E+02 -0.12460300378E+02  0.36547624128E+02  0.45923754348E+02  0.00000000000E+00 0.  1.
       11    1    4    4    0    0  0.33932293973E+02 -0.67748481466E+01  0.33865053324E+03  0.34041369362E+03  0.00000000000E+00 0. -1.
      -13    1    3    3    0    0 -0.35408266341E+02 -0.25260100806E+02  0.90651158700E+02  0.10054576367E+03  0.00000000000E+00 0.  1.
       13    1    3    3    0    0  0.41857670352E+01  0.55124628339E+02  0.17970423599E+03  0.18801557841E+03  0.00000000000E+00 0. -1.
       21    1    1    2  502  501  0.53318869391E+01 -0.46974600776E+02  0.65170211892E+02  0.80512102534E+02  0.00000000000E+00 0.  1.
       21    1    1    2  503  502  0.16817990525E+02  0.36345221767E+02  0.60059400657E+03  0.60192772048E+03  0.00000000000E+00 0.  1.
<mgrwt>
<rscale>  2 0.94541677E+02</rscale>
<asrwt>0</asrwt>
<pdfrwt beam="1">  1        1 0.20528126E+00 0.94913128E+02</pdfrwt>
<pdfrwt beam="2">  1       -1 0.35400648E-02 0.94913128E+02</pdfrwt>
<totfact> 0.26863364E+03</totfact>
</mgrwt>
</event>
<event>
10   0  0.3368750E-06  0.4208112E+03  0.7546771E-02  0.1069428E+00
       21   -1    0    0  501  502  0.00000000000E+00  0.00000000000E+00  0.17716697783E+03  0.17716697783E+03  0.00000000000E+00 0.  1.
       -1   -1    0    0    0  501  0.00000000000E+00  0.00000000000E+00 -0.11522442907E+04  0.11522442907E+04  0.00000000000E+00 0.  1.
       23    2    1    2    0    0  0.12766602804E+03  0.56139009275E+02 -0.88303982905E+03  0.89865269757E+03  0.91472007106E+02 0.  0.
       23    2    1    2    0    0 -0.16204913361E+03 -0.82144376935E+02 -0.32766498623E+02  0.20627638478E+03  0.92025448230E+02 0.  0.
      -11    1    4    4    0    0 -0.13404489622E+03 -0.50737939033E+02  0.13231122861E+02  0.14393552470E+03  0.00000000000E+00 0.  1.
       11    1    4    4    0    0 -0.28004237393E+02 -0.31406437903E+02 -0.45997621483E+02  0.62340860082E+02  0.00000000000E+00 0. -1.
      -13    1    3    3    0    0  0.29712360479E+02  0.13236250189E+02 -0.56263221275E+02  0.64989020246E+02  0.00000000000E+00 0. -1.
       13    1    3    3    0    0  0.97953667560E+02  0.42902759085E+02 -0.82677660777E+03  0.83366367732E+03  0.00000000000E+00 0.  1.
       21    1    1    2  503  502 -0.65370649375E+02 -0.36977848898E+02  0.25384146152E+02  0.79278231468E+02  0.00000000000E+00 0.  1.
       -1    1    1    2    0  503  0.99753754946E+02  0.62983216559E+02 -0.84655131334E+02  0.14520395468E+03  0.00000000000E+00 0.  1.
<mgrwt>
<rscale>  2 0.33389113E+03</rscale>
<asrwt>0</asrwt>
<pdfrwt beam="1">  1       21 0.27256458E-01 0.42081118E+03</pdfrwt>
<pdfrwt beam="2">  1       -1 0.17726835E+00 0.42081118E+03</pdfrwt>
<totfact> 0.26783450E+02</totfact>
</mgrwt>
</event>
<event>
10   0  0.3368750E-06  0.1034881E+03  0.7546771E-02  0.1275445E+00
       -2   -1    0    0    0  501  0.00000000000E+00  0.00000000000E+00  0.25879172553E+03  0.25879172553E+03  0.00000000000E+00 0.  1.
        2   -1    0    0  503    0  0.00000000000E+00  0.00000000000E+00 -0.25909958613E+03  0.25909958613E+03  0.00000000000E+00 0. -1.
       23    2    1    2    0    0  0.25001694500E+02 -0.38913732170E+02  0.17976563351E+03  0.20703372617E+03  0.91694697241E+02 0.  0.
       23    2    1    2    0    0 -0.27924152246E+02 -0.28952613588E+02 -0.21008325466E+03  0.23467625675E+03  0.96539937244E+02 0.  0.
      -11    1    4    4    0    0 -0.54865040548E+02 -0.46764135329E+02 -0.15160258934E+03  0.16787019426E+03  0.00000000000E+00 0. -1.
       11    1    4    4    0    0  0.26940888302E+02  0.17811521740E+02 -0.58480665324E+02  0.66806062494E+02  0.00000000000E+00 0.  1.
      -13    1    3    3    0    0  0.58148843227E+01  0.45344477781E+01  0.15167176313E+03  0.15185090658E+03  0.00000000000E+00 0.  1.
       13    1    3    3    0    0  0.19186810177E+02 -0.43448179948E+02  0.28093870374E+02  0.55182819592E+02  0.00000000000E+00 0. -1.
       21    1    1    2  502  501  0.52020356957E+01  0.15407377928E+02  0.13509636462E+02  0.21141398897E+02  0.00000000000E+00 0.  1.
       21    1    1    2  503  502 -0.22795779490E+01  0.52458967831E+02  0.16500124086E+02  0.55039929836E+02  0.00000000000E+00 0. -1.
<mgrwt>
<rscale>  2 0.10234307E+03</rscale>
<asrwt>0</asrwt>
<pdfrwt beam="1">  1        2 0.39861475E-01 0.10348807E+03</pdfrwt>
<pdfrwt beam="2">  1       -2 0.39814112E-01 0.10348807E+03</pdfrwt>
<totfact> 0.76215332E+02</totfact>
</mgrwt>
</event>
<event>
10   0  0.3368750E-06  0.1140346E+03  0.7546771E-02  0.1254955E+00
       21   -1    0    0  501  502  0.00000000000E+00  0.00000000000E+00  0.19046846941E+04  0.19046846941E+04  0.00000000000E+00 0. -1.
        1   -1    0    0  503    0  0.00000000000E+00  0.00000000000E+00 -0.19726346574E+02  0.19726346574E+02  0.00000000000E+00 0. -1.
       23    2    1    2    0    0  0.25571417466E+02  0.58188206675E+02  0.26929326224E+03  0.29098094080E+03  0.90062656137E+02 0.  0.
       23    2    1    2    0    0 -0.41200267348E+02 -0.70085784045E+02  0.12383253399E+04  0.12439178912E+04  0.85279501984E+02 0.  0.
      -11    1    4    4    0    0 -0.50797615298E+02 -0.84522336875E+02  0.95949094635E+03  0.96454512558E+03  0.00000000000E+00 0. -1.
       11    1    4    4    0    0  0.95973479501E+01  0.14436552830E+02  0.27883439351E+03  0.27937276558E+03  0.00000000000E+00 0.  1.
      -13    1    3    3    0    0  0.53727911215E+01  0.80163244458E+02  0.19277754880E+03  0.20884969707E+03  0.00000000000E+00 0. -1.
       13    1    3    3    0    0  0.20198626345E+02 -0.21975037784E+02  0.76515713445E+02  0.82131243725E+02  0.00000000000E+00 0.  1.
       21    1    1    2  503  502 -0.18011007021E+02  0.12151422704E+02  0.16951726499E+02  0.27557475918E+02  0.00000000000E+00 0. -1.
        1    1    1    2  501    0  0.33639856903E+02 -0.25384533377E+00  0.36038801894E+03  0.36195473282E+03  0.00000000000E+00 0. -1.
<mgrwt>
<rscale>  2 0.11308825E+03</rscale>
<asrwt>0</asrwt>
<pdfrwt beam="1">  1       21 0.29302841E+00 0.11403462E+03</pdfrwt>
<pdfrwt beam="2">  1        1 0.30348225E-02 0.11403462E+03</pdfrwt>
<totfact> 0.14170610E+03</totfact>
</mgrwt>
</event>
<event>
10   0  0.3368750E-06  0.9759416E+02  0.7546771E-02  0.1286400E+00
       21   -1    0    0  501  502  0.00000000000E+00  0.00000000000E+00  0.10302447443E+02  0.10302447443E+02  0.00000000000E+00 0. -1.
        2   -1    0    0  503    0  0.00000000000E+00  0.00000000000E+00 -0.13245367695E+04  0.13245367695E+04  0.00000000000E+00 0.  1.
       23    2    1    2    0    0  0.16224318174E+02 -0.32400993664E+02 -0.65431563764E+03  0.66172657348E+03  0.91869752879E+02 0.  0.
       23    2    1    2    0    0 -0.10121345210E+02  0.27510806239E+02 -0.53180353801E+03  0.54016214904E+03  0.90004767204E+02 0.  0.
      -11    1    4    4    0    0  0.19290857800E+02  0.37893294331E+02 -0.45890971798E+03  0.46087543676E+03  0.00000000000E+00 0.  1.
       11    1    4    4    0    0 -0.29412203011E+02 -0.10382488092E+02 -0.72893820029E+02  0.79286712275E+02  0.00000000000E+00 0. -1.
      -13    1    3    3    0    0  0.22322407032E+02 -0.15703449702E+02 -0.63457557654E+03  0.63516222379E+03  0.00000000000E+00 0.  1.
       13    1    3    3    0    0 -0.60980888585E+01 -0.16697543962E+02 -0.19740061103E+02  0.26564349690E+02  0.00000000000E+00 0. -1.
       21    1    1    2  503  502 -0.74781187821E+01 -0.14320179520E+02 -0.53160359209E+02  0.55560899860E+02  0.00000000000E+00 0. -1.
        2    1    1    2  501    0  0.13751458184E+01  0.19210366945E+02 -0.74954787176E+02  0.77389594551E+02  0.00000000000E+00 0.  1.
<mgrwt>
<rscale>  2 0.97152796E+02</rscale>
<asrwt>0</asrwt>
<pdfrwt beam="1">  1       21 0.15849919E-02 0.97594164E+02</pdfrwt>
<pdfrwt beam="2">  1        2 0.20377489E+00 0.97594164E+02</pdfrwt>
<totfact> 0.38306360E+05</totfact>
</mgrwt>
</event>
<event>
10   0  0.3368750E-06  0.5074022E+03  0.7546771E-02  0.1064719E+00
       21   -1    0    0  503  502  0.00000000000E+00  0.00000000000E+00  0.10367447057E+03  0.10367447057E+03  0.00000000000E+00 0.  1.
        1   -1    0    0  502    0  0.00000000000E+00  0.00000000000E+00 -0.11937835097E+04  0.11937835097E+04  0.00000000000E+00 0. -1.
       23    2    1    2    0    0 -0.57675496246E+02  0.40700551516E+02 -0.15987555861E+02  0.10952113293E+03  0.82196586641E+02 0.  0.
       23    2    1    2    0    0  0.40601358224E+02  0.11507881316E+02 -0.10995766705E+04  0.11042186980E+04  0.91919405515E+02 0.  0.
      -11    1    3    3    0    0 -0.15186183503E+02  0.55647633195E+02  0.84160131524E+01  0.58293297445E+02  0.00000000000E+00 0.  1.
       11    1    3    3    0    0 -0.42489312744E+02 -0.14947081680E+02 -0.24403569013E+02  0.51227835488E+02  0.00000000000E+00 0. -1.
      -13    1    4    4    0    0 -0.25897909083E+02 -0.10382232108E+02 -0.45412015223E+03  0.45497648851E+03  0.00000000000E+00 0.  1.
       13    1    4    4    0    0  0.66499267307E+02  0.21890113424E+02 -0.64545651825E+03  0.64924220948E+03  0.00000000000E+00 0. -1.
       21    1    1    2  503  501 -0.87528032146E+01 -0.67991713071E+01 -0.14284985535E+02  0.18080406697E+02  0.00000000000E+00 0.  1.
        1    1    1    2  501    0  0.25826941237E+02 -0.45409261524E+02  0.39740172768E+02  0.65637742629E+02  0.00000000000E+00 0. -1.
<mgrwt>
<rscale>  2 0.34492088E+03</rscale>
<asrwt>0</asrwt>
<pdfrwt beam="1">  1       21 0.15949919E-01 0.50740220E+03</pdfrwt>
<pdfrwt beam="2">  1        1 0.18365900E+00 0.50740220E+03</pdfrwt>
<totfact> 0.42276228E+03</totfact>
</mgrwt>
</event>
<event>
10   0  0.3368750E-06  0.1302198E+03  0.7546771E-02  0.1227707E+00
        1   -1    0    0  503    0  0.00000000000E+00  0.00000000000E+00  0.27844412174E+04  0.27844412174E+04  0.00000000000E+00 0. -1.
       21   -1    0    0  501  502  0.00000000000E+00  0.00000000000E+00 -0.11927956829E+02  0.11927956829E+02  0.00000000000E+00 0.  1.
       23    2    1    2    0    0 -0.78464850067E+02 -0.53600397718E+02  0.78877938954E+03  0.79972408679E+03  0.91410909103E+02 0.  0.
       23    2    1    2    0    0  0.80935566506E+02  0.51436791520E+02  0.10621519646E+04  0.10701952870E+04  0.89189947870E+02 0.  0.
      -11    1    3    3    0    0 -0.89757956067E+02 -0.68363772512E+02  0.65251148326E+03  0.66219433088E+03  0.00000000000E+00 0.  1.
       11    1    3    3    0    0  0.11293106001E+02  0.14763374794E+02  0.13626790628E+03  0.13752975591E+03  0.00000000000E+00 0. -1.
      -13    1    4    4    0    0  0.92860716941E+00 -0.21900274493E+02  0.21657408911E+03  0.21768054670E+03  0.00000000000E+00 0.  1.
       13    1    4    4    0    0  0.80006959337E+02  0.73337066013E+02  0.84557787553E+03  0.85251474027E+03  0.00000000000E+00 0. -1.
       21    1    1    2  503  502 -0.13070120871E+02 -0.77193097595E+01  0.90179873543E+03  0.90192647983E+03  0.00000000000E+00 0.  1.
        1    1    1    2  501    0  0.10599404431E+02  0.98829159573E+01  0.19783170988E+02  0.24523320665E+02  0.00000000000E+00 0. -1.
<mgrwt>
<rscale>  2 0.12983073E+03</rscale>
<asrwt>0</asrwt>
<pdfrwt beam="1">  1       21 0.18350703E-02 0.13021981E+03</pdfrwt>
<pdfrwt beam="2">  1        1 0.42837557E+00 0.13021981E+03</pdfrwt>
<totfact> 0.17151055E+04</totfact>
</mgrwt>
</event>
<event>
10   0  0.3368750E-06  0.1682057E+03  0.7546771E-02  0.1179907E+00
        3   -1    0    0  502    0  0.00000000000E+00  0.00000000000E+00  0.11318979485E+03  0.11318979485E+03  0.00000000000E+00 0. -1.
       -3   -1    0    0    0  501  0.00000000000E+00  0.00000000000E+00 -0.47346326208E+03  0.47346326208E+03  0.00000000000E+00 0.  1.
       23    2    1    2    0    0 -0.28219575439E+02  0.14250397644E+03 -0.31177066866E+03  0.35608590977E+03  0.92154747919E+02 0.  0.
       23    2    1    2    0    0  0.40102309780E+02 -0.11844317773E+03 -0.28429180265E+02  0.15861696786E+03  0.93349572048E+02 0.  0.
      -11    1    3    3    0    0 -0.50209585445E+02  0.32698794034E+02 -0.11538106556E+03  0.13001155291E+03  0.00000000000E+00 0.  1.
       11    1    3    3    0    0  0.21990010006E+02  0.10980518241E+03 -0.19638960310E+03  0.22607435686E+03  0.00000000000E+00 0. -1.
      -13    1    4    4    0    0 -0.22749544645E+02 -0.47510282794E+02 -0.35593403585E+02  0.63574044480E+02  0.00000000000E+00 0.  1.
       13    1    4    4    0    0  0.62851854425E+02 -0.70932894940E+02  0.71642233201E+01  0.95042923382E+02  0.00000000000E+00 0. -1.
       21    1    1    2  502  503 -0.14988970186E+02  0.18847761148E+02  0.88103586248E+00  0.24097376449E+02  0.00000000000E+00 0.  1.
       21    1    1    2  503  501  0.31062358451E+01 -0.42908559853E+02 -0.20954654170E+02  0.47852802856E+02  0.00000000000E+00 0. -1.
<mgrwt>
<rscale>  2 0.16804040E+03</rscale>
<asrwt>0</asrwt>
<pdfrwt beam="1">  1        3 0.17413815E-01 0.16820568E+03</pdfrwt>
<pdfrwt beam="2">  1       -3 0.72840502E-01 0.16820568E+03</pdfrwt>
<totfact> 0.12566440E+02</totfact>
</mgrwt>
</event>
<event>
10   0  0.3368750E-06  0.4723231E+03  0.7546771E-02  0.1021267E+00
        1   -1    0    0  502    0  0.00000000000E+00  0.00000000000E+00  0.10253112789E+03  0.10253112789E+03  0.00000000000E+00 0. -1.
       21   -1    0    0  503  502  0.00000000000E+00  0.00000000000E+00 -0.73012065618E+03  0.73012065618E+03  0.00000000000E+00 0. -1.
       23    2    1    2    0    0  0.12935042849E+03 -0.11594539720E+03 -0.14650741404E+03  0.24439823669E+03  0.89951138121E+02 0.  0.
       23    2    1    2    0    0 -0.15989427570E+03  0.72933588380E+02 -0.22729524438E+03  0.30177446905E+03  0.92299590133E+02 0.  0.
      -11    1    4    4    0    0 -0.16531465642E+03  0.82080674466E+02 -0.19836250128E+03  0.27094991173E+03  0.00000000000E+00 0. -1.
       11    1    4    4    0    0  0.54203807275E+01 -0.91470860858E+01 -0.28932743100E+02  0.30824557327E+02  0.00000000000E+00 0.  1.
      -13    1    3    3    0    0  0.69622645203E+02 -0.54249936859E+01 -0.57059556109E+02  0.90180575652E+02  0.00000000000E+00 0.  1.
       13    1    3    3    0    0  0.59727783283E+02 -0.11052040352E+03 -0.89447857930E+02  0.15421766104E+03  0.00000000000E+00 0. -1.
       21    1    1    2  503  501 -0.20080951842E+02 -0.11079332789E+02 -0.18159112838E+03  0.18303369676E+03  0.00000000000E+00 0. -1.
        1    1    1    2  501    0  0.50624799052E+02  0.54091141611E+02 -0.72195741478E+02  0.10344538157E+03  0.00000000000E+00 0. -1.
<mgrwt>
<rscale>  2 0.47232307E+03</rscale>
<asrwt>0</asrwt>
<pdfrwt beam="1">  1       21 0.11232625E+00 0.47232307E+03</pdfrwt>
<pdfrwt beam="2">  1        1 0.15774020E-01 0.47232307E+03</pdfrwt>
<totfact> 0.21565534E+03</totfact>
</mgrwt>
</event>
<event>
10   0  0.3368750E-06  0.1651586E+03  0.7546771E-02  0.1191657E+00
       21   -1    0    0  503  502  0.00000000000E+00  0.00000000000E+00  0.34488589288E+02  0.34488589288E+02  0.00000000000E+00 0. -1.
       -1   -1    0    0    0  501  0.00000000000E+00  0.00000000000E+00 -0.86402587208E+03  0.86402587208E+03  0.00000000000E+00 0.  1.
       23    2    1    2    0    0 -0.18139459633E+02  0.92200746503E+02 -0.33531458266E+03  0.36014685779E+03  0.91868776975E+02 0.  0.
       23    2    1    2    0    0 -0.10250579137E+02 -0.60500794284E+02 -0.31164839290E+03  0.33048602878E+03  0.91273621250E+02 0.  0.
      -11    1    4    4    0    0  0.16352659632E+02 -0.45814446861E+02 -0.61091748328E+02  0.78093371882E+02  0.00000000000E+00 0. -1.
       11    1    4    4    0    0 -0.26603238769E+02 -0.14686347424E+02 -0.25055664458E+03  0.25239265689E+03  0.00000000000E+00 0.  1.
      -13    1    3    3    0    0 -0.25128047215E+02 -0.11356883500E+02 -0.74354857686E+02  0.79303483033E+02  0.00000000000E+00 0.  1.
       13    1    3    3    0    0  0.69885875824E+01  0.10355763000E+03 -0.26095972497E+03  0.28084337476E+03  0.00000000000E+00 0. -1.
       21    1    1    2  503  501 -0.13035935788E+02  0.11789868556E+02 -0.21317901063E+01  0.17705398936E+02  0.00000000000E+00 0. -1.
       -1    1    1    2    0  502  0.41425974558E+02 -0.43489820775E+02 -0.18044251712E+03  0.19017617586E+03  0.00000000000E+00 0.  1.
<mgrwt>
<rscale>  2 0.15740561E+03</rscale>
<asrwt>0</asrwt>
<pdfrwt beam="1">  1       21 0.53059368E-02 0.16515861E+03</pdfrwt>
<pdfrwt beam="2">  1       -1 0.13292706E+00 0.16515861E+03</pdfrwt>
<totfact> 0.11856152E+04</totfact>
</mgrwt>
</event>
<event>
10   0  0.3368750E-06  0.1160694E+03  0.7546771E-02  0.1251283E+00
        1   -1    0    0  503    0  0.00000000000E+00  0.00000000000E+00  0.16399261865E+03  0.16399261865E+03  0.00000000000E+00 0. -1.
       21   -1    0    0  501  502  0.00000000000E+00  0.00000000000E+00 -0.65970394094E+03  0.65970394094E+03  0.00000000000E+00 0. -1.
       23    2    1    2    0    0  0.12755782588E+02  0.68518654703E+02  0.57372299568E+02  0.13150371540E+03  0.95624946396E+02 0.  0.
       23    2    1    2    0    0  0.92456371283E+01 -0.68156245812E+02 -0.60609304871E+01  0.11445266550E+03  0.91279363020E+02 0.  0.
      -11    1    3    3    0    0 -0.39715752123E+02  0.46336851908E+02  0.24742510669E+02  0.65853144539E+02  0.00000000000E+00 0.  1.
       11    1    3    3    0    0  0.52471534711E+02  0.22181802795E+02  0.32629788899E+02  0.65650570856E+02  0.00000000000E+00 0. -1.
      -13    1    4    4    0    0 -0.52610482576E+00  0.12928237681E+02  0.24129761475E+02  0.27379947127E+02  0.00000000000E+00 0.  1.
       13    1    4    4    0    0  0.97717419540E+01 -0.81084483493E+02 -0.30190691962E+02  0.87072718376E+02  0.00000000000E+00 0. -1.
       21    1    1    2  503  502 -0.32558229210E+01 -0.99868189418E+01  0.13341261659E+02  0.16980170733E+02  0.00000000000E+00 0. -1.
        1    1    1    2  501    0 -0.18745596795E+02  0.96244100515E+01 -0.56036395303E+03  0.56076000795E+03  0.00000000000E+00 0. -1.
<mgrwt>
<rscale>  2 0.11517076E+03</rscale>
<asrwt>0</asrwt>
<pdfrwt beam="1">  1       21 0.10149291E+00 0.11606944E+03</pdfrwt>
<pdfrwt beam="2">  1        1 0.25229634E-01 0.11606944E+03</pdfrwt>
<totfact> 0.16850329E+03</totfact>
</mgrwt>
</event>
<event>
10   0  0.3368750E-06  0.9987676E+02  0.7546771E-02  0.1281048E+00
        1   -1    0    0  503    0  0.00000000000E+00  0.00000000000E+00  0.16031269790E+03  0.16031269790E+03  0.00000000000E+00 0. -1.
       -1   -1    0    0    0  501  0.00000000000E+00  0.00000000000E+00 -0.96416431019E+02  0.96416431019E+02  0.00000000000E+00 0.  1.
       23    2    1    2    0    0 -0.14900322425E+02 -0.25768724451E+02  0.36213317662E+02  0.10228800391E+03  0.90914160616E+02 0.  0.
       23    2    1    2    0    0  0.76485130022E+01  0.55622380709E+02  0.17350546207E+02  0.10739450516E+03  0.89889873167E+02 0.  0.
      -11    1    4    4    0    0 -0.34503283016E+02  0.49662900298E+02 -0.22807005593E+01  0.60515136949E+02  0.00000000000E+00 0. -1.
       11    1    4    4    0    0  0.42151796018E+02  0.59594804108E+01  0.19631246767E+02  0.46879368211E+02  0.00000000000E+00 0.  1.
      -13    1    3    3    0    0 -0.41386527445E+02 -0.24314252091E+02  0.52520109490E+02  0.71150470199E+02  0.00000000000E+00 0. -1.
       13    1    3    3    0    0  0.26486205019E+02 -0.14544723606E+01 -0.16306791828E+02  0.31137533716E+02  0.00000000000E+00 0.  1.
       21    1    1    2  502  501 -0.75589073960E+01 -0.17705858447E+02 -0.77040888985E+01  0.20736139711E+02  0.00000000000E+00 0.  1.
       21    1    1    2  503  502  0.14810716819E+02 -0.12147797811E+02  0.18036491907E+02  0.26310480130E+02  0.00000000000E+00 0. -1.
<mgrwt>
<rscale>  2 0.99643074E+02</rscale>
<asrwt>0</asrwt>
<pdfrwt beam="1">  1        1 0.24663492E-01 0.99876759E+02</pdfrwt>
<pdfrwt beam="2">  1       -1 0.14833297E-01 0.99876759E+02</pdfrwt>
<totfact> 0.59318959E+03</totfact>
</mgrwt>
</event>
<event>
10   0  0.3368750E-06  0.1042525E+03  0.7546771E-02  0.1271937E+00
        2   -1    0    0  503    0  0.00000000000E+00  0.00000000000E+00  0.20666352987E+04  0.20666352987E+04  0.00000000000E+00 0. -1.
       -2   -1    0    0    0  501  0.00000000000E+00  0.00000000000E+00 -0.19353485617E+02  0.19353485617E+02  0.00000000000E+00 0.  1.
       23    2    1    2    0    0 -0.26520518589E+02  0.50352178259E+01  0.61108273836E+03  0.61845047589E+03  0.91269856381E+02 0.  0.
       23    2    1    2    0    0  0.33943754299E+02 -0.60998691163E+02  0.25819878729E+03  0.28236326016E+03  0.90495183041E+02 0.  0.
      -11    1    3    3    0    0 -0.40588534098E+02 -0.29231733473E+02  0.46743336231E+03  0.47010197994E+03  0.00000000000E+00 0.  1.
       11    1    3    3    0    0  0.14068015509E+02  0.34266951299E+02  0.14364937604E+03  0.14834849595E+03  0.00000000000E+00 0. -1.
      -13    1    4    4    0    0 -0.46680519842E+01 -0.70527996533E+02  0.12791562199E+03  0.14614511744E+03  0.00000000000E+00 0.  1.
       13    1    4    4    0    0  0.38611806284E+02  0.95293053698E+01  0.13028316530E+03  0.13621814272E+03  0.00000000000E+00 0. -1.
       21    1    1    2  502  501  0.61548460476E+01  0.16280567760E+02  0.20403416214E+02  0.26818620577E+02  0.00000000000E+00 0.  1.
       21    1    1    2  503  502 -0.13578081758E+02  0.39682905577E+02  0.11575968712E+04  0.11583564277E+04  0.00000000000E+00 0. -1.
<mgrwt>
<rscale>  2 0.10408273E+03</rscale>
<asrwt>0</asrwt>
<pdfrwt beam="1">  1        2 0.31794389E+00 0.10425253E+03</pdfrwt>
<pdfrwt beam="2">  1       -2 0.29774593E-02 0.10425253E+03</pdfrwt>
<totfact> 0.29441265E+03</totfact>
</mgrwt>
</event>
<event>
10   0  0.3368750E-06  0.1121673E+03  0.7546771E-02  0.1259173E+00
        3   -1    0    0  503    0  0.00000000000E+00  0.00000000000E+00  0.30576877038E+03  0.30576877038E+03  0.00000000000E+00 0. -1.
       -3   -1    0    0    0  501  0.00000000000E+00  0.00000000000E+00 -0.20123530549E+03  0.20123530549E+03  0.00000000000E+00 0.  1.
       23    2    1    2    0    0  0.49691022672E+02 -0.41568176973E+01 -0.13423257436E+03  0.16931539865E+03  0.90348455081E+02 0.  0.
       23    2    1    2    0    0 -0.10375782563E+03 -0.24659829133E+02  0.75399509522E+02  0.16258035923E+03  0.96816804431E+02 0.  0.
      -11    1    4    4    0    0 -0.52087931852E+02 -0.46876523851E+02  0.79756530520E+02  0.10616809923E+03  0.00000000000E+00 0. -1.
       11    1    4    4    0    0 -0.51669893773E+02  0.22216694718E+02 -0.43570209978E+01  0.56412260004E+02  0.00000000000E+00 0.  1.
      -13    1    3    3    0    0  0.64400240216E+02 -0.26898484839E+02 -0.11974667228E+03  0.13860081150E+03  0.00000000000E+00 0.  1.
       13    1    3    3    0    0 -0.14709217544E+02  0.22741667141E+02 -0.14485902080E+02  0.30714587157E+02  0.00000000000E+00 0. -1.
       21    1    1    2  502  501  0.34039542780E+02  0.13327540843E+02  0.79464370431E+02  0.87469423147E+02  0.00000000000E+00 0. -1.
       21    1    1    2  503  502  0.20027260173E+02  0.15489105987E+02  0.83902159293E+02  0.87638894837E+02  0.00000000000E+00 0. -1.
<mgrwt>
<rscale>  2 0.11075768E+03</rscale>
<asrwt>0</asrwt>
<pdfrwt beam="1">  1        3 0.47041349E-01 0.11216730E+03</pdfrwt>
<pdfrwt beam="2">  1       -3 0.30959278E-01 0.11216730E+03</pdfrwt>
<totfact> 0.10513662E+02</totfact>
</mgrwt>
</event>
<event>
10   0  0.3368750E-06  0.2837739E+03  0.7546771E-02  0.1093645E+00
        1   -1    0    0  503    0  0.00000000000E+00  0.00000000000E+00  0.49176756037E+03  0.49176756037E+03  0.00000000000E+00 0. -1.
       21   -1    0    0  501  502  0.00000000000E+00  0.00000000000E+00 -0.44542772912E+02  0.44542772912E+02  0.00000000000E+00 0.  1.
       23    2    1    2    0    0 -0.56231284932E+02  0.67665427166E+02  0.12575224514E+03  0.17846770636E+03  0.91085276622E+02 0.  0.
       23    2    1    2    0    0  0.42795872830E+02 -0.60108410357E+02  0.30865693307E+03  0.32968711648E+03  0.89330760159E+02 0.  0.
      -11    1    3    3    0    0 -0.44680873497E+02 -0.49521656805E+01  0.80288959468E+02  0.92017506018E+02  0.00000000000E+00 0. -1.
       11    1    3    3    0    0 -0.11550411436E+02  0.72617592847E+02  0.45463285670E+02  0.86450200341E+02  0.00000000000E+00 0.  1.
      -13    1    4    4    0    0  0.22707636099E+02  0.13881133978E+02  0.27521761154E+02  0.38285375207E+02  0.00000000000E+00 0.  1.
       13    1    4    4    0    0  0.20088236732E+02 -0.73989544335E+02  0.28113517192E+03  0.29140174127E+03  0.00000000000E+00 0. -1.
       21    1    1    2  503  502  0.10843249973E+02  0.40127739112E+01  0.11361709085E+02  0.16210085064E+02  0.00000000000E+00 0. -1.
        1    1    1    2  501    0  0.25921621290E+01 -0.11569790720E+02  0.14539001616E+01  0.11945425379E+02  0.00000000000E+00 0. -1.
<mgrwt>
<rscale>  2 0.28377393E+03</rscale>
<asrwt>0</asrwt>
<pdfrwt beam="1">  1       21 0.68527343E-02 0.28377393E+03</pdfrwt>
<pdfrwt beam="2">  1        1 0.75656548E-01 0.28377393E+03</pdfrwt>
<totfact> 0.80013129E+04</totfact>
</mgrwt>
</event>
<event>
10   0  0.3368750E-06  0.1281895E+03  0.7546771E-02  0.1231131E+00
       21   -1    0    0  503  502  0.00000000000E+00  0.00000000000E+00  0.12786722683E+03  0.12786722683E+03  0.00000000000E+00 0. -1.
       21   -1    0    0  501  503  0.00000000000E+00  0.00000000000E+00 -0.46581366985E+03  0.46581366985E+03  0.00000000000E+00 0. -1.
       23    2    1    2    0    0  0.86040070718E+02 -0.60973039057E+02  0.36028546360E+01  0.13855550669E+03  0.89800014535E+02 0.  0.
       23    2    1    2    0    0 -0.56388963177E+02 -0.59473552988E+02 -0.23908700924E+03  0.26941465423E+03  0.93299728054E+02 0.  0.
      -11    1    3    3    0    0  0.47351004954E+02  0.15502010139E+02 -0.12460663295E+02  0.51358525273E+02  0.00000000000E+00 0.  1.
       11    1    3    3    0    0  0.38689065764E+02 -0.76475049196E+02  0.16063517931E+02  0.87196981413E+02  0.00000000000E+00 0. -1.
      -13    1    4    4    0    0 -0.15162493553E+02 -0.50077436842E+02 -0.21388137090E+03  0.22018830966E+03  0.00000000000E+00 0.  1.
       13    1    4    4    0    0 -0.41226469624E+02 -0.93961161466E+01 -0.25205638341E+02  0.49226344578E+02  0.00000000000E+00 0. -1.
        3    1    1    2  501    0 -0.36568965627E+02  0.10819558804E+03 -0.11836309421E+03  0.16447916764E+03  0.00000000000E+00 0. -1.
       -3    1    1    2    0  502  0.69178580861E+01  0.12251004006E+02  0.15900805799E+02  0.21231568117E+02  0.00000000000E+00 0.  1.
<mgrwt>
<rscale>  2 0.12755373E+03</rscale>
<asrwt>0</asrwt>
<pdfrwt beam="1">  1       21 0.19671881E-01 0.12818951E+03</pdfrwt>
<pdfrwt beam="2">  1       21 0.71663642E-01 0.12818951E+03</pdfrwt>
<totfact> 0.43345955E+04</totfact>
</mgrwt>
</event>
<event>
10   0  0.3368750E-06  0.1712504E+03  0.7546771E-02  0.1176587E+00
        1   -1    0    0  502    0  0.00000000000E+00  0.00000000000E+00  0.42938577719E+03  0.42938577719E+03  0.00000000000E+00 0. -1.
       -1   -1    0    0    0  501  0.00000000000E+00  0.00000000000E+00 -0.42745073329E+03  0.42745073329E+03  0.00000000000E+00 0.  1.
       23    2    1    2    0    0 -0.11298280899E+03  0.10098071908E+02 -0.12618184264E+03  0.19331445639E+03  0.92636577311E+02 0.  0.
       23    2    1    2    0    0  0.17872096478E+03 -0.17150766592E+02 -0.20986608659E+03  0.29122480887E+03  0.92373064001E+02 0.  0.
      -11    1    4    4    0    0  0.18755116615E+03 -0.14685825431E+02 -0.18147081903E+03  0.26138624974E+03  0.00000000000E+00 0.  1.
       11    1    4    4    0    0 -0.88302013697E+01 -0.24649411612E+01 -0.28395267558E+02  0.29838559128E+02  0.00000000000E+00 0. -1.
      -13    1    3    3    0    0 -0.12863705668E+03  0.64020922246E+01 -0.10210473653E+03  0.16435892540E+03  0.00000000000E+00 0. -1.
       13    1    3    3    0    0  0.15654247691E+02  0.36959796833E+01 -0.24077106114E+02  0.28955530999E+02  0.00000000000E+00 0.  1.
       21    1    1    2  502  503 -0.56707871889E+02  0.15663190053E+02  0.35003806381E+03  0.35494755158E+03  0.00000000000E+00 0. -1.
       21    1    1    2  503  501 -0.90302839054E+01 -0.86104953683E+01 -0.12055090682E+02  0.17349693636E+02  0.00000000000E+00 0.  1.
<mgrwt>
<rscale>  2 0.17121480E+03</rscale>
<asrwt>0</asrwt>
<pdfrwt beam="1">  1        1 0.66059350E-01 0.17125041E+03</pdfrwt>
<pdfrwt beam="2">  1       -1 0.65761651E-01 0.17125041E+03</pdfrwt>
<totfact> 0.13810476E+02</totfact>
</mgrwt>
</event>
<event>
10   0  0.3368750E-06  0.3302453E+03  0.7546771E-02  0.1071057E+00
       -3   -1    0    0    0  501  0.00000000000E+00  0.00000000000E+00  0.55902722550E+03  0.55902722550E+03  0.00000000000E+00 0.  1.
       21   -1    0    0  503  502  0.00000000000E+00  0.00000000000E+00 -0.41242627949E+03  0.41242627949E+03  0.00000000000E+00 0.  1.
       23    2    1    2    0    0  0.12010177282E+02 -0.27400754787E+03  0.35002277212E+02  0.29083995999E+03  0.90212761124E+02 0.  0.
       23    2    1    2    0    0  0.21541766995E+03  0.33851351193E+03  0.10075356451E+03  0.42362599170E+03  0.91167591771E+02 0.  0.
      -11    1    3    3    0    0 -0.30500142147E+02 -0.80243391715E+02  0.34362293366E+02  0.92466360317E+02  0.00000000000E+00 0.  1.
       11    1    3    3    0    0  0.42510319429E+02 -0.19376415616E+03  0.63998384659E+00  0.19837359968E+03  0.00000000000E+00 0. -1.
      -13    1    4    4    0    0  0.13527654928E+03  0.17870889716E+03  0.13094566795E+02  0.22451744340E+03  0.00000000000E+00 0.  1.
       13    1    4    4    0    0  0.80141120668E+02  0.15980461477E+03  0.87658997714E+02  0.19910854829E+03  0.00000000000E+00 0. -1.
       21    1    1    2  503  501 -0.16772426725E+02 -0.35962995396E+02  0.19534887184E+02  0.44229663727E+02  0.00000000000E+00 0. -1.
       -3    1    1    2    0  502 -0.21065542051E+03 -0.28542968665E+02 -0.86897828923E+01  0.21275788958E+03  0.00000000000E+00 0.  1.
<mgrwt>
<rscale>  2 0.33017969E+03</rscale>
<asrwt>0</asrwt>
<pdfrwt beam="1">  1       21 0.63450197E-01 0.33024529E+03</pdfrwt>
<pdfrwt beam="2">  1       -3 0.86004189E-01 0.33024529E+03</pdfrwt>
<totfact> 0.13902981E+02</totfact>
</mgrwt>
</event>
<event>
10   0  0.3368750E-06  0.1298284E+03  0.7546771E-02  0.1241688E+00
       21   -1    0    0  503  502  0.00000000000E+00  0.00000000000E+00  0.19933551628E+03  0.19933551628E+03  0.00000000000E+00 0. -1.
       -4   -1    0    0    0  501  0.00000000000E+00  0.00000000000E+00 -0.90850029149E+02  0.90850029149E+02  0.00000000000E+00 0.  1.
       23    2    1    2    0    0  0.30341854607E+01  0.31729345619E+02 -0.11876181720E+02  0.99548767806E+02  0.93557232882E+02 0.  0.
       23    2    1    2    0    0  0.21090432204E+02 -0.33474307669E+02  0.46968663430E+02  0.99106508539E+02  0.77786303974E+02 0.  0.
      -11    1    4    4    0    0  0.19301784311E+01 -0.32187061664E+02 -0.14023723601E+02  0.35162442335E+02  0.00000000000E+00 0.  1.
       11    1    4    4    0    0  0.19160253773E+02 -0.12872460051E+01  0.60992387031E+02  0.63944066204E+02  0.00000000000E+00 0. -1.
      -13    1    3    3    0    0 -0.94921792032E+01  0.61752317343E+02  0.54073556727E+01  0.62711160559E+02  0.00000000000E+00 0.  1.
       13    1    3    3    0    0  0.12526364664E+02 -0.30022971724E+02 -0.17283537393E+02  0.36837607247E+02  0.00000000000E+00 0. -1.
       21    1    1    2  503  501  0.53029337380E+01 -0.18274978330E+02  0.23364840175E+02  0.30133232412E+02  0.00000000000E+00 0. -1.
       -4    1    1    2    0  502 -0.29427551403E+02  0.20019940380E+02  0.50028165250E+02  0.61397036677E+02  0.00000000000E+00 0.  1.
<mgrwt>
<rscale>  2 0.12085825E+03</rscale>
<asrwt>0</asrwt>
<pdfrwt beam="1">  1       21 0.30667003E-01 0.12982837E+03</pdfrwt>
<pdfrwt beam="2">  1       -4 0.13976928E-01 0.12982837E+03</pdfrwt>
<totfact> 0.17743193E+04</totfact>
</mgrwt>
</event>
<event>
10   0  0.3368750E-06  0.9716642E+02  0.7546771E-02  0.1286460E+00
        1   -1    0    0  503    0  0.00000000000E+00  0.00000000000E+00  0.37752669168E+02  0.37752669168E+02  0.00000000000E+00 0. -1.
       -1   -1    0    0    0  501  0.00000000000E+00  0.00000000000E+00 -0.70223956160E+03  0.70223956160E+03  0.00000000000E+00 0.  1.
       23    2    1    2    0    0  0.53599449825E+02 -0.28398744726E+02 -0.24852545639E+03  0.27177938909E+03  0.91759163766E+02 0.  0.
       23    2    1    2    0    0 -0.83929885408E+01 -0.21998882638E+02 -0.30490167844E+03  0.31922901893E+03  0.91584605240E+02 0.  0.
      -11    1    4    4    0    0 -0.20814304185E+02 -0.54905437072E+02 -0.20853244469E+03  0.21664169213E+03  0.00000000000E+00 0.  1.
       11    1    4    4    0    0  0.12421315644E+02  0.32906554434E+02 -0.96369233743E+02  0.10258732680E+03  0.00000000000E+00 0. -1.
      -13    1    3    3    0    0  0.37164097343E+02 -0.98641246315E+00 -0.23353707543E+03  0.23647771299E+03  0.00000000000E+00 0.  1.
       13    1    3    3    0    0  0.16435352481E+02 -0.27412332263E+02 -0.14988380956E+02  0.35301676093E+02  0.00000000000E+00 0. -1.
       21    1    1    2  502  501 -0.34416244152E+02  0.13848742518E+02 -0.10374673839E+03  0.11018008558E+03  0.00000000000E+00 0. -1.
       21    1    1    2  503  502 -0.10790217132E+02  0.36548884845E+02 -0.73130192164E+01  0.38803737181E+02  0.00000000000E+00 0. -1.
<mgrwt>
<rscale>  2 0.97125189E+02</rscale>
<asrwt>0</asrwt>
<pdfrwt beam="1">  1        1 0.58081029E-02 0.97166422E+02</pdfrwt>
<pdfrwt beam="2">  1       -1 0.10803686E+00 0.97166422E+02</pdfrwt>
<totfact> 0.11089233E+03</totfact>
</mgrwt>
</event>
<event>
10   0  0.3368750E-06  0.1773450E+03  0.7546771E-02  0.1193105E+00
       21   -1    0    0  501  502  0.00000000000E+00  0.00000000000E+00  0.18531421975E+03  0.18531421975E+03  0.00000000000E+00 0.  1.
        1   -1    0    0  503    0  0.00000000000E+00  0.00000000000E+00 -0.14446757690E+03  0.14446757690E+03  0.00000000000E+00 0. -1.
       23    2    1    2    0    0  0.49302346781E+02  0.29000447088E+01 -0.12739351142E+02  0.10736695687E+03  0.94478784407E+02 0.  0.
       23    2    1    2    0    0 -0.32249504085E+02 -0.22964507789E+02 -0.16478505125E+02  0.10113513239E+03  0.91593530018E+02 0.  0.
      -11    1    4    4    0    0 -0.55797388988E+02 -0.22192884341E+02  0.14925098433E+02  0.61875934712E+02  0.00000000000E+00 0.  1.
       11    1    4    4    0    0  0.23547884903E+02 -0.77162344816E+00 -0.31403603558E+02  0.39259197681E+02  0.00000000000E+00 0. -1.
      -13    1    3    3    0    0  0.61520186859E+02 -0.31816915991E+02 -0.13456555200E+02  0.70555853139E+02  0.00000000000E+00 0. -1.
       13    1    3    3    0    0 -0.12217840078E+02  0.34716960699E+02  0.71720405875E+00  0.36811103733E+02  0.00000000000E+00 0.  1.
       21    1    1    2  503  502 -0.16028710885E+02 -0.30575129307E+02 -0.37102299282E+00  0.34523843396E+02  0.00000000000E+00 0.  1.
        1    1    1    2  501    0 -0.10241318107E+01  0.50639592387E+02  0.70435522107E+02  0.86755863996E+02  0.00000000000E+00 0. -1.
<mgrwt>
<rscale>  2 0.15615727E+03</rscale>
<asrwt>0</asrwt>
<pdfrwt beam="1">  1       21 0.28509880E-01 0.17734501E+03</pdfrwt>
<pdfrwt beam="2">  1        1 0.22225781E-01 0.17734501E+03</pdfrwt>
<totfact> 0.28256992E+04</totfact>
</mgrwt>
</event>
<event>
10   0  0.3368750E-06  0.1819223E+03  0.7546771E-02  0.1194525E+00
       21   -1    0    0  501  502  0.00000000000E+00  0.00000000000E+00  0.77596133307E+02  0.77596133307E+02  0.00000000000E+00 0. -1.
       -1   -1    0    0    0  501  0.00000000000E+00  0.00000000000E+00 -0.78835775717E+03  0.78835775717E+03  0.00000000000E+00 0.  1.
       23    2    1    2    0    0 -0.28050409120E+02  0.11366498707E+02 -0.37967064392E+03  0.39234720562E+03  0.94183380502E+02 0.  0.
       23    2    1    2    0    0  0.33462713769E+02 -0.18573074925E+02 -0.25857914694E+03  0.27720610312E+03  0.92278578497E+02 0.  0.
      -11    1    3    3    0    0  0.34823150737E+02 -0.86923411142E+00 -0.12847089540E+03  0.13310964789E+03  0.00000000000E+00 0. -1.
       11    1    3    3    0    0 -0.62873559857E+02  0.12235732819E+02 -0.25119974852E+03  0.25923755774E+03  0.00000000000E+00 0.  1.
      -13    1    4    4    0    0 -0.49879689289E+00 -0.51520403450E+02 -0.11455293655E+03  0.12560643312E+03  0.00000000000E+00 0.  1.
       13    1    4    4    0    0  0.33961510662E+02  0.32947328525E+02 -0.14402621039E+03  0.15159966999E+03  0.00000000000E+00 0. -1.
       21    1    1    2  503  502  0.50403806680E+02 -0.46103695141E+02  0.24375231428E+02  0.72527555733E+02  0.00000000000E+00 0. -1.
       -1    1    1    2    0  503 -0.55816111329E+02  0.53310271358E+02 -0.96887064430E+02  0.12387302600E+03  0.00000000000E+00 0.  1.
<mgrwt>
<rscale>  2 0.15494480E+03</rscale>
<asrwt>0</asrwt>
<pdfrwt beam="1">  1       21 0.11937867E-01 0.18192228E+03</pdfrwt>
<pdfrwt beam="2">  1       -1 0.12128581E+00 0.18192228E+03</pdfrwt>
<totfact> 0.36071630E+03</totfact>
</mgrwt>
</event>
<event>
10   0  0.3368750E-06  0.2707769E+03  0.7546771E-02  0.1126665E+00
       21   -1    0    0  503  502  0.00000000000E+00  0.00000000000E+00  0.57033601631E+02  0.57033601631E+02  0.00000000000E+00 0. -1.
        2   -1    0    0  502    0  0.00000000000E+00  0.00000000000E+00 -0.23232938606E+04  0.23232938606E+04  0.00000000000E+00 0. -1.
       23    2    1    2    0    0 -0.10167721205E+03 -0.29967904617E+02 -0.68702998267E+03  0.70103784772E+03  0.90595452998E+02 0.  0.
       23    2    1    2    0    0  0.21767937886E+03  0.22243730265E+03 -0.10049202229E+04  0.10559638663E+04  0.91281799840E+02 0.  0.
      -11    1    3    3    0    0 -0.81145384085E+02  0.11415490588E+02 -0.55804964684E+03  0.56403394855E+03  0.00000000000E+00 0.  1.
       11    1    3    3    0    0 -0.20531827962E+02 -0.41383395205E+02 -0.12898033583E+03  0.13700389917E+03  0.00000000000E+00 0. -1.
      -13    1    4    4    0    0  0.19335737986E+03  0.14391362033E+03 -0.70984101098E+03  0.74964822906E+03  0.00000000000E+00 0. -1.
       13    1    4    4    0    0  0.24321998998E+02  0.78523682329E+02 -0.29507921193E+03  0.30631563727E+03  0.00000000000E+00 0.  1.
       21    1    1    2  503  501 -0.89885918740E+01  0.95108843479E+01 -0.42619502765E+02  0.44583334565E+02  0.00000000000E+00 0. -1.
        2    1    1    2  501    0 -0.10701357494E+03 -0.20198028239E+03 -0.53169055066E+03  0.57874241364E+03  0.00000000000E+00 0. -1.
<mgrwt>
<rscale>  2 0.22996344E+03</rscale>
<asrwt>0</asrwt>
<pdfrwt beam="1">  1       21 0.87744003E-02 0.27077695E+03</pdfrwt>
<pdfrwt beam="2">  1        2 0.35742982E+00 0.27077695E+03</pdfrwt>
<totfact> 0.64348846E+03</totfact>
</mgrwt>
</event>
<event>
10   0  0.3368750E-06  0.2445787E+03  0.7546771E-02  0.1139389E+00
        1   -1    0    0  501    0  0.00000000000E+00  0.00000000000E+00  0.11446890683E+04  0.11446890683E+04  0.00000000000E+00 0. -1.
       -1   -1    0    0    0  501  0.00000000000E+00  0.00000000000E+00 -0.52467290328E+03  0.52467290328E+03  0.00000000000E+00 0.  1.
       23    2    1    2    0    0 -0.41497706625E+01 -0.16629673282E+03  0.30727055442E+03  0.36185604052E+03  0.94089194442E+02 0.  0.
       23    2    1    2    0    0  0.11821225398E+02  0.10071608982E+03  0.68339048350E+03  0.69688998749E+03  0.91376307645E+02 0.  0.
      -11    1    3    3    0    0  0.23262244062E+02 -0.14091083715E+03  0.18325340308E+03  0.23233339356E+03  0.00000000000E+00 0. -1.
       11    1    3    3    0    0 -0.27412014725E+02 -0.25385895669E+02  0.12401715133E+03  0.12952264696E+03  0.00000000000E+00 0.  1.
      -13    1    4    4    0    0  0.48795990990E+02  0.42687199502E+02  0.26099210461E+03  0.26892401233E+03  0.00000000000E+00 0.  1.
       13    1    4    4    0    0 -0.36974765592E+02  0.58028890316E+02  0.42239837889E+03  0.42796597516E+03  0.00000000000E+00 0. -1.
        1    1    1    2  502    0 -0.55586502847E+02  0.41193121313E+02  0.10838152041E+03  0.12858182806E+03  0.00000000000E+00 0. -1.
       -1    1    1    2    0  502  0.47915048112E+02  0.24387521685E+02 -0.47902639329E+03  0.48203411552E+03  0.00000000000E+00 0.  1.
<mgrwt>
<rscale>  2 0.21277242E+03</rscale>
<asrwt>0</asrwt>
<pdfrwt beam="1">  1        1 0.17610601E+00 0.24457871E+03</pdfrwt>
<pdfrwt beam="2">  1       -1 0.80718908E-01 0.24457871E+03</pdfrwt>
<totfact> 0.20646952E+01</totfact>
</mgrwt>
</event>
<event>
10   0  0.3368750E-06  0.1532193E+03  0.7546771E-02  0.1217113E+00
        2   -1    0    0  503    0  0.00000000000E+00  0.00000000000E+00  0.20322360691E+04  0.20322360691E+04  0.00000000000E+00 0. -1.
       21   -1    0    0  501  502  0.00000000000E+00  0.00000000000E+00 -0.54352349361E+02  0.54352349361E+02  0.00000000000E+00 0.  1.
       23    2    1    2    0    0  0.17584773281E+02 -0.34051494330E+02  0.10798216471E+04  0.10842686194E+04  0.90304600609E+02 0.  0.
       23    2    1    2    0    0 -0.88121501925E+01  0.27605029818E+02  0.91642860601E+03  0.92136029653E+03  0.90684698054E+02 0.  0.
      -11    1    3    3    0    0  0.29737419147E+02  0.18836727220E+02  0.66234859507E+03  0.66328334652E+03  0.00000000000E+00 0.  1.
       11    1    3    3    0    0 -0.12152645865E+02 -0.52888221550E+02  0.41747305203E+03  0.42098527285E+03  0.00000000000E+00 0. -1.
      -13    1    4    4    0    0 -0.22325694252E+02  0.44477458033E+02  0.26861984687E+03  0.27319096440E+03  0.00000000000E+00 0.  1.
       13    1    4    4    0    0  0.13513544059E+02 -0.16872428215E+02  0.64780875914E+03  0.64816933214E+03  0.00000000000E+00 0. -1.
       21    1    1    2  503  502 -0.17730250455E+02 -0.12698805406E+02 -0.43173188960E+02  0.48368850358E+02  0.00000000000E+00 0.  1.
        2    1    1    2  501    0  0.89576273665E+01  0.19145269918E+02  0.24806655556E+02  0.32590652159E+02  0.00000000000E+00 0. -1.
<mgrwt>
<rscale>  2 0.13722485E+03</rscale>
<asrwt>0</asrwt>
<pdfrwt beam="1">  1       21 0.83618999E-02 0.15321931E+03</pdfrwt>
<pdfrwt beam="2">  1        2 0.31265170E+00 0.15321931E+03</pdfrwt>
<totfact> 0.10485660E+04</totfact>
</mgrwt>
</event>
<event>
10   0  0.3368750E-06  0.2878045E+03  0.7546771E-02  0.1125277E+00
        1   -1    0    0  503    0  0.00000000000E+00  0.00000000000E+00  0.52001985642E+03  0.52001985642E+03  0.00000000000E+00 0. -1.
       -1   -1    0    0    0  501  0.00000000000E+00  0.00000000000E+00 -0.37920694841E+03  0.37920694841E+03  0.00000000000E+00 0.  1.
       23    2    1    2    0    0 -0.12367354667E+03  0.22997541310E+03 -0.16469499702E+03  0.32195838300E+03  0.91372433295E+02 0.  0.
       23    2    1    2    0    0 -0.62979034659E+00  0.85889855456E+02  0.37392635129E+02  0.12971571235E+03  0.89724539360E+02 0.  0.
      -11    1    4    4    0    0 -0.28327996363E+02  0.88420945626E+01  0.37523948458E+02  0.47840408883E+02  0.00000000000E+00 0.  1.
       11    1    4    4    0    0  0.27698206016E+02  0.77047760894E+02 -0.13131332938E+00  0.81875303471E+02  0.00000000000E+00 0. -1.
      -13    1    3    3    0    0 -0.11149019838E+03  0.15868554853E+03 -0.15643507282E+03  0.24916480421E+03  0.00000000000E+00 0.  1.
       13    1    3    3    0    0 -0.12183348288E+02  0.71289864566E+02 -0.82599241947E+01  0.72793578790E+02  0.00000000000E+00 0. -1.
       21    1    1    2  502  501  0.11931815325E+03 -0.29389232058E+03  0.19802436486E+03  0.37392936080E+03  0.00000000000E+00 0. -1.
       21    1    1    2  503  502  0.49851837708E+01 -0.21972947976E+02  0.70090905042E+02  0.73623348672E+02  0.00000000000E+00 0. -1.
<mgrwt>
<rscale>  2 0.23194663E+03</rscale>
<asrwt>0</asrwt>
<pdfrwt beam="1">  1        1 0.80003055E-01 0.28780453E+03</pdfrwt>
<pdfrwt beam="2">  1       -1 0.58339531E-01 0.28780453E+03</pdfrwt>
<totfact> 0.13258132E+02</totfact>
</mgrwt>
</event>
<event>
10   0  0.3368750E-06  0.1380132E+03  0.7546771E-02  0.1236870E+00
       21   -1    0    0  501  502  0.00000000000E+00  0.00000000000E+00  0.82919628448E+02  0.82919628448E+02  0.00000000000E+00 0.  1.
       -1   -1    0    0    0  501  0.00000000000E+00  0.00000000000E+00 -0.10429344326E+04  0.10429344326E+04  0.00000000000E+00 0.  1.
       23    2    1    2    0    0  0.13546539297E+02 -0.50379953699E+01 -0.87634923120E+03  0.88092201132E+03  0.88468779164E+02 0.  0.
       23    2    1    2    0    0  0.56909264074E+00 -0.22721196915E+02 -0.14102257843E+03  0.16984003150E+03  0.91878680964E+02 0.  0.
      -11    1    4    4    0    0 -0.16738190275E+02 -0.43443915159E+02 -0.29546849622E+02  0.55141246818E+02  0.00000000000E+00 0.  1.
       11    1    4    4    0    0  0.17307282916E+02  0.20722718244E+02 -0.11147572881E+03  0.11469878468E+03  0.00000000000E+00 0. -1.
      -13    1    3    3    0    0  0.47967594762E+01  0.15105745155E+02 -0.82400191255E+03  0.82415432070E+03  0.00000000000E+00 0.  1.
       13    1    3    3    0    0  0.87497798205E+01 -0.20143740525E+02 -0.52347318647E+02  0.56767690624E+02  0.00000000000E+00 0. -1.
       21    1    1    2  503  502 -0.94849618025E+01  0.64578375073E+01  0.51157685028E+02  0.52428779340E+02  0.00000000000E+00 0.  1.
       -1    1    1    2    0  503 -0.46306701349E+01  0.21301354778E+02  0.61993204771E+01  0.22663238860E+02  0.00000000000E+00 0.  1.
<mgrwt>
<rscale>  2 0.12385471E+03</rscale>
<asrwt>0</asrwt>
<pdfrwt beam="1">  1       21 0.12756866E-01 0.13801315E+03</pdfrwt>
<pdfrwt beam="2">  1       -1 0.16045145E+00 0.13801315E+03</pdfrwt>
<totfact> 0.16048502E+03</totfact>
</mgrwt>
</event>
<event>
10   0  0.3368750E-06  0.1033622E+03  0.7546771E-02  0.1279835E+00
       21   -1    0    0  501  502  0.00000000000E+00  0.00000000000E+00  0.91560516280E+01  0.91560516280E+01  0.00000000000E+00 0.  1.
        1   -1    0    0  503    0  0.00000000000E+00  0.00000000000E+00 -0.17641944054E+04  0.17641944054E+04  0.00000000000E+00 0. -1.
       23    2    1    2    0    0  0.16562929653E+02  0.19935130918E+02 -0.10051901064E+04  0.10107244914E+04  0.10239681401E+03 0.  0.
       23    2    1    2    0    0 -0.41158662616E+01  0.45932622247E+01 -0.60399945102E+03  0.61073745182E+03  0.90259956842E+02 0.  0.
      -11    1    3    3    0    0  0.11426614279E+02  0.61551115239E+02 -0.67099746512E+03  0.67391149678E+03  0.00000000000E+00 0.  1.
       11    1    3    3    0    0  0.51363153749E+01 -0.41615984322E+02 -0.33419264127E+03  0.33681299465E+03  0.00000000000E+00 0. -1.
      -13    1    4    4    0    0  0.13068888610E+02 -0.17741551179E+02 -0.54403600631E+03  0.54448207927E+03  0.00000000000E+00 0.  1.
       13    1    4    4    0    0 -0.17184754871E+02  0.22334813404E+02 -0.59963444714E+02  0.66255372550E+02  0.00000000000E+00 0. -1.
       21    1    1    2  503  502  0.42854765592E+01 -0.25267566696E+02 -0.90906413544E+02  0.94449940495E+02  0.00000000000E+00 0. -1.
        1    1    1    2  501    0 -0.16732539951E+02  0.73917355368E+00 -0.54942382863E+02  0.57438573323E+02  0.00000000000E+00 0. -1.
<mgrwt>
<rscale>  2 0.10021966E+03</rscale>
<asrwt>0</asrwt>
<pdfrwt beam="1">  1       21 0.14086233E-02 0.10336222E+03</pdfrwt>
<pdfrwt beam="2">  1        1 0.27141452E+00 0.10336222E+03</pdfrwt>
<totfact> 0.11911693E+05</totfact>
</mgrwt>
</event>
<event>
10   0  0.3368750E-06  0.1402316E+03  0.7546771E-02  0.1213109E+00
       -2   -1    0    0    0  501  0.00000000000E+00  0.00000000000E+00  0.51970442829E+03  0.51970442829E+03  0.00000000000E+00 0.  1.
        2   -1    0    0  503    0  0.00000000000E+00  0.00000000000E+00 -0.60967659013E+03  0.60967659013E+03  0.00000000000E+00 0. -1.
       23    2    1    2    0    0 -0.93166748600E+02 -0.27735937318E+02 -0.31715469743E+03  0.34406321317E+03  0.91340392458E+02 0.  0.
       23    2    1    2    0    0  0.84934790585E+02  0.38511241788E+02  0.13176731103E+03  0.18527391685E+03  0.90921755436E+02 0.  0.
      -11    1    3    3    0    0 -0.53142149889E+01 -0.28687239256E+02 -0.17148872189E+03  0.17395281059E+03  0.00000000000E+00 0. -1.
       11    1    3    3    0    0 -0.87852533611E+02  0.95130193796E+00 -0.14566597554E+03  0.17011040259E+03  0.00000000000E+00 0.  1.
      -13    1    4    4    0    0  0.88148209544E+02  0.44653608585E+02  0.65287286375E+02  0.11843344700E+03  0.00000000000E+00 0.  1.
       13    1    4    4    0    0 -0.32134189593E+01 -0.61423667968E+01  0.66480024659E+02  0.66840469852E+02  0.00000000000E+00 0. -1.
       21    1    1    2  502  501  0.13623893879E+02  0.74559875427E+01  0.34719758118E+03  0.34754476347E+03  0.00000000000E+00 0.  1.
       21    1    1    2  503  502 -0.53919358635E+01 -0.18231292012E+02 -0.25178235662E+03  0.25249912492E+03  0.00000000000E+00 0. -1.
<mgrwt>
<rscale>  2 0.14016349E+03</rscale>
<asrwt>0</asrwt>
<pdfrwt beam="1">  1        2 0.93796398E-01 0.14023162E+03</pdfrwt>
<pdfrwt beam="2">  1       -2 0.79954527E-01 0.14023162E+03</pdfrwt>
<totfact> 0.73650625E+01</totfact>
</mgrwt>
</event>
<event>
10   0  0.3368750E-06  0.9910906E+02  0.7546771E-02  0.1283392E+00
        2   -1    0    0  503    0  0.00000000000E+00  0.00000000000E+00  0.10722088427E+03  0.10722088427E+03  0.00000000000E+00 0. -1.
       -2   -1    0    0    0  501  0.00000000000E+00  0.00000000000E+00 -0.72966045916E+03  0.72966045916E+03  0.00000000000E+00 0.  1.
       23    2    1    2    0    0  0.10972993624E+02  0.13774754026E+02 -0.10707512597E+03  0.14138219452E+03  0.90629420651E+02 0.  0.
       23    2    1    2    0    0 -0.43235378719E+02 -0.17818249534E+02 -0.53048676788E+03  0.53979264904E+03  0.88165214646E+02 0.  0.
      -11    1    4    4    0    0 -0.34975094807E+02 -0.45583066053E+02 -0.20144666389E+03  0.20947990730E+03  0.00000000000E+00 0. -1.
       11    1    4    4    0    0 -0.82602839117E+01  0.27764816519E+02 -0.32904010398E+03  0.33031274174E+03  0.00000000000E+00 0.  1.
      -13    1    3    3    0    0  0.11051363249E+01 -0.33363747255E+02 -0.13244032486E+02  0.35913303297E+02  0.00000000000E+00 0.  1.
       13    1    3    3    0    0  0.98678572993E+01  0.47138501282E+02 -0.93831093485E+02  0.10546889122E+03  0.00000000000E+00 0. -1.
       21    1    1    2  502  501  0.42337781095E+02  0.17282886545E+02 -0.61870877419E+02  0.76936281090E+02  0.00000000000E+00 0. -1.
       21    1    1    2  503  502 -0.10075396001E+02 -0.13239391038E+02  0.76993196374E+02  0.78770218785E+02  0.00000000000E+00 0. -1.
<mgrwt>
<rscale>  2 0.98542153E+02</rscale>
<asrwt>0</asrwt>
<pdfrwt beam="1">  1        2 0.16495521E-01 0.99109058E+02</pdfrwt>
<pdfrwt beam="2">  1       -2 0.11225546E+00 0.99109058E+02</pdfrwt>
<totfact> 0.22684667E+02</totfact>
</mgrwt>
</event>
<event>
10   0  0.3368750E-06  0.9533386E+02  0.7546771E-02  0.1291388E+00
        2   -1    0    0  502    0  0.00000000000E+00  0.00000000000E+00  0.12856539482E+04  0.12856539482E+04  0.00000000000E+00 0.  1.
        1   -1    0    0  501    0  0.00000000000E+00  0.00000000000E+00 -0.61866084062E+02  0.61866084062E+02  0.00000000000E+00 0. -1.
       23    2    1    2    0    0  0.24862850308E+02  0.77114239549E+01  0.10307915909E+02  0.95540685872E+02  0.91346276014E+02 0.  0.
       23    2    1    2    0    0 -0.33479053561E+02  0.20750270257E+02  0.11789141762E+03  0.15320798126E+03  0.89570522107E+02 0.  0.
      -11    1    3    3    0    0  0.35765986674E+02 -0.67014211056E+01  0.44127209583E+02  0.57195502211E+02  0.00000000000E+00 0.  1.
       11    1    3    3    0    0 -0.10903136367E+02  0.14412845060E+02 -0.33819293674E+02  0.38345183661E+02  0.00000000000E+00 0. -1.
      -13    1    4    4    0    0  0.27627806733E+01 -0.25013713291E+02  0.79377631246E+02  0.83271406568E+02  0.00000000000E+00 0.  1.
       13    1    4    4    0    0 -0.36241834235E+02  0.45763983548E+02  0.38513786373E+02  0.69936574692E+02  0.00000000000E+00 0. -1.
        2    1    1    2  501    0 -0.17113108109E+02 -0.12154059314E+02  0.93970210139E+03  0.93993649732E+03  0.00000000000E+00 0.  1.
        1    1    1    2  502    0  0.25729311363E+02 -0.16307634898E+02  0.15588642923E+03  0.15883486783E+03  0.00000000000E+00 0. -1.
<mgrwt>
<rscale>  2 0.94905968E+02</rscale>
<asrwt>0</asrwt>
<pdfrwt beam="1">  1        2 0.19779292E+00 0.95333865E+02</pdfrwt>
<pdfrwt beam="2">  1        1 0.95178591E-02 0.95333865E+02</pdfrwt>
<totfact> 0.16773838E+03</totfact>
</mgrwt>
</event>
<event>
10   0  0.3368750E-06  0.1258188E+03  0.7546771E-02  0.1240844E+00
        1   -1    0    0  503    0  0.00000000000E+00  0.00000000000E+00  0.48957236511E+02  0.48957236511E+02  0.00000000000E+00 0. -1.
       21   -1    0    0  501  502  0.00000000000E+00  0.00000000000E+00 -0.49708986680E+03  0.49708986680E+03  0.00000000000E+00 0.  1.
       23    2    1    2    0    0  0.29727800645E+02 -0.65911334907E+02 -0.86687985051E+02  0.14325424409E+03  0.88198217087E+02 0.  0.
       23    2    1    2    0    0 -0.42569651377E+02  0.49294870897E+02 -0.31837637871E+03  0.34255064790E+03  0.10832944355E+03 0.  0.
      -11    1    4    4    0    0  0.26076697619E+02  0.26585543034E+02 -0.20301803290E+03  0.20640520086E+03  0.00000000000E+00 0. -1.
       11    1    4    4    0    0 -0.68646348995E+02  0.22709327863E+02 -0.11535834581E+03  0.13614544704E+03  0.00000000000E+00 0.  1.
      -13    1    3    3    0    0 -0.18001269754E+02  0.11735357547E+02 -0.82901353529E+01  0.23032383152E+02  0.00000000000E+00 0.  1.
       13    1    3    3    0    0  0.47729070398E+02 -0.77646692454E+02 -0.78397849698E+02  0.12022186094E+03  0.00000000000E+00 0. -1.
       21    1    1    2  503  502 -0.86778606811E+01  0.11476551004E+02 -0.33432085548E+01  0.14771375440E+02  0.00000000000E+00 0. -1.
        1    1    1    2  501    0  0.21519711413E+02  0.51399130060E+01 -0.39725057974E+02  0.45470835884E+02  0.00000000000E+00 0. -1.
<mgrwt>
<rscale>  2 0.12137636E+03</rscale>
<asrwt>0</asrwt>
<pdfrwt beam="1">  1       21 0.76475364E-01 0.12581885E+03</pdfrwt>
<pdfrwt beam="2">  1        1 0.75318825E-02 0.12581885E+03</pdfrwt>
<totfact> 0.15312214E+04</totfact>
</mgrwt>
</event>
<event>
10   0  0.3368750E-06  0.1546158E+03  0.7546771E-02  0.1195007E+00
        2   -1    0    0  503    0  0.00000000000E+00  0.00000000000E+00  0.10972265215E+04  0.10972265215E+04  0.00000000000E+00 0. -1.
       21   -1    0    0  501  502  0.00000000000E+00  0.00000000000E+00 -0.15085359686E+03  0.15085359686E+03  0.00000000000E+00 0. -1.
       23    2    1    2    0    0  0.11027148970E+03  0.81709781742E+02  0.94023904000E+03  0.95452217237E+03  0.90701903711E+02 0.  0.
       23    2    1    2    0    0 -0.64882894217E+02 -0.47181888120E+02  0.10958878680E+03  0.16301722718E+03  0.90160931874E+02 0.  0.
      -11    1    4    4    0    0 -0.37409556784E+02 -0.27567393665E+02 -0.19215302347E+01  0.46509444317E+02  0.00000000000E+00 0.  1.
       11    1    4    4    0    0 -0.27473337434E+02 -0.19614494455E+02  0.11151031703E+03  0.11650778286E+03  0.00000000000E+00 0. -1.
      -13    1    3    3    0    0  0.90511983107E+02  0.73993037999E+02  0.91060116200E+03  0.91807508679E+03  0.00000000000E+00 0. -1.
       13    1    3    3    0    0  0.19759506592E+02  0.77167437426E+01  0.29637878003E+02  0.36447085580E+02  0.00000000000E+00 0.  1.
       21    1    1    2  503  502 -0.54630314106E+02 -0.14034722525E+02 -0.65609899898E+02  0.86522272395E+02  0.00000000000E+00 0. -1.
        2    1    1    2  501    0  0.92417186245E+01 -0.20493171097E+02 -0.37845002281E+02  0.44018446387E+02  0.00000000000E+00 0. -1.
<mgrwt>
<rscale>  2 0.15453658E+03</rscale>
<asrwt>0</asrwt>
<pdfrwt beam="1">  1       21 0.23208246E-01 0.15461582E+03</pdfrwt>
<pdfrwt beam="2">  1        2 0.16880408E+00 0.15461582E+03</pdfrwt>
<totfact> 0.51847649E+03</totfact>
</mgrwt>
</event>
<event>
10   0  0.3368750E-06  0.9206162E+02  0.7546771E-02  0.1299824E+00
        1   -1    0    0  502    0  0.00000000000E+00  0.00000000000E+00  0.13779406740E+03  0.13779406740E+03  0.00000000000E+00 0. -1.
       -1   -1    0    0    0  501  0.00000000000E+00  0.00000000000E+00 -0.15245955517E+03  0.15245955517E+03  0.00000000000E+00 0.  1.
       23    2    1    2    0    0  0.34624487513E+02 -0.32050487855E+02 -0.79687361584E+01  0.99939722267E+02  0.87740289626E+02 0.  0.
       23    2    1    2    0    0  0.16557946054E+01 -0.10601784666E+02 -0.38098287413E+02  0.99178195151E+02  0.90937865577E+02 0.  0.
      -11    1    4    4    0    0  0.38598026626E+02  0.50560025679E+01  0.61906790685E+01  0.39416942154E+02  0.00000000000E+00 0.  1.
       11    1    4    4    0    0 -0.36942232021E+02 -0.15657787234E+02 -0.44288966482E+02  0.59761252997E+02  0.00000000000E+00 0. -1.
      -13    1    3    3    0    0  0.66923085094E+01 -0.49007714702E+02 -0.32408865132E+02  0.59134403123E+02  0.00000000000E+00 0.  1.
       13    1    3    3    0    0  0.27932179003E+02  0.16957226848E+02  0.24440128973E+02  0.40805319144E+02  0.00000000000E+00 0. -1.
       21    1    1    2  502  503 -0.15652495498E+02 -0.10981892047E+01  0.39124365266E+02  0.42153559664E+02  0.00000000000E+00 0. -1.
       21    1    1    2  503  501 -0.20627786620E+02  0.43750461725E+02 -0.77228294662E+01  0.48982145491E+02  0.00000000000E+00 0. -1.
<mgrwt>
<rscale>  2 0.91261973E+02</rscale>
<asrwt>0</asrwt>
<pdfrwt beam="1">  1        1 0.21199087E-01 0.92061618E+02</pdfrwt>
<pdfrwt beam="2">  1       -1 0.23455316E-01 0.92061618E+02</pdfrwt>
<totfact> 0.34520910E+03</totfact>
</mgrwt>
</event>
<event>
10   0  0.3368750E-06  0.6308929E+03  0.7546771E-02  0.9843308E-01
       21   -1    0    0  503  502  0.00000000000E+00  0.00000000000E+00  0.36698178747E+03  0.36698178747E+03  0.00000000000E+00 0. -1.
       -1   -1    0    0    0  501  0.00000000000E+00  0.00000000000E+00 -0.28884608262E+03  0.28884608262E+03  0.00000000000E+00 0.  1.
       23    2    1    2    0    0  0.10119650040E+03 -0.34745309537E+02 -0.34503647360E+02  0.14494450570E+03  0.91490107793E+02 0.  0.
       23    2    1    2    0    0  0.19610249758E+02 -0.11999987648E+03 -0.12686667814E+03  0.19753675624E+03  0.90227954602E+02 0.  0.
      -11    1    4    4    0    0  0.75447900330E+00 -0.58745603621E+02 -0.11932470596E+03  0.13300376174E+03  0.00000000000E+00 0.  1.
       11    1    4    4    0    0  0.18855770754E+02 -0.61254272864E+02 -0.75419721737E+01  0.64532994500E+02  0.00000000000E+00 0. -1.
      -13    1    3    3    0    0  0.92580445693E+02 -0.62467481890E+02 -0.29139137979E+02  0.11542276457E+03  0.00000000000E+00 0. -1.
       13    1    3    3    0    0  0.86160547073E+01  0.27722172353E+02 -0.53645093801E+01  0.29521741134E+02  0.00000000000E+00 0.  1.
       21    1    1    2  503  501 -0.10203124059E+02 -0.86348393270E+00  0.19740601918E+02  0.22238271271E+02  0.00000000000E+00 0.  1.
       -1    1    1    2    0  502 -0.11060362610E+03  0.15560866995E+03  0.21976542843E+03  0.29110833688E+03  0.00000000000E+00 0.  1.
<mgrwt>
<rscale>  2 0.63089285E+03</rscale>
<asrwt>0</asrwt>
<pdfrwt beam="1">  1       21 0.56458737E-01 0.63089285E+03</pdfrwt>
<pdfrwt beam="2">  1       -1 0.44437859E-01 0.63089285E+03</pdfrwt>
<totfact> 0.12686096E+03</totfact>
</mgrwt>
</event>
<event>
10   0  0.3368750E-06  0.9815249E+02  0.7546771E-02  0.1285346E+00
        2   -1    0    0  502    0  0.00000000000E+00  0.00000000000E+00  0.34683531804E+03  0.34683531804E+03  0.00000000000E+00 0. -1.
       21   -1    0    0  503  502  0.00000000000E+00  0.00000000000E+00 -0.69872985020E+02  0.69872985020E+02  0.00000000000E+00 0.  1.
       23    2    1    2    0    0 -0.40837894314E+02  0.25835189288E+02  0.22453294400E+02  0.10615917514E+03  0.91817369927E+02 0.  0.
       23    2    1    2    0    0  0.21144361363E+02 -0.11920771958E+02  0.26333524020E+03  0.28064694825E+03  0.93957820351E+02 0.  0.
      -11    1    4    4    0    0  0.34922050785E+02 -0.30930654508E+02  0.60200944153E+02  0.76160414234E+02  0.00000000000E+00 0. -1.
       11    1    4    4    0    0 -0.13777689422E+02  0.19009882550E+02  0.20313429605E+03  0.20448653401E+03  0.00000000000E+00 0.  1.
      -13    1    3    3    0    0 -0.39745695160E+02  0.38708269474E+02 -0.22138092953E+02  0.59733956582E+02  0.00000000000E+00 0.  1.
       13    1    3    3    0    0 -0.10921991542E+01 -0.12873080186E+02  0.44591387353E+02  0.46425218562E+02  0.00000000000E+00 0. -1.
       21    1    1    2  503  501  0.10630254401E+02 -0.30619314749E+01 -0.10995562060E+02  0.15597439469E+02  0.00000000000E+00 0. -1.
        2    1    1    2  501    0  0.90632785507E+01 -0.10852485855E+02  0.21693604773E+01  0.14304740200E+02  0.00000000000E+00 0. -1.
<mgrwt>
<rscale>  2 0.97636690E+02</rscale>
<asrwt>0</asrwt>
<pdfrwt beam="1">  1       21 0.10749690E-01 0.98152488E+02</pdfrwt>
<pdfrwt beam="2">  1        2 0.53359280E-01 0.98152488E+02</pdfrwt>
<totfact> 0.81644989E+04</totfact>
</mgrwt>
</event>
<event>
10   0  0.3368750E-06  0.9438662E+02  0.7546771E-02  0.1293371E+00
        1   -1    0    0  503    0  0.00000000000E+00  0.00000000000E+00  0.59403433014E+03  0.59403433014E+03  0.00000000000E+00 0. -1.
       21   -1    0    0  501  502  0.00000000000E+00  0.00000000000E+00 -0.28606653746E+03  0.28606653746E+03  0.00000000000E+00 0.  1.
       23    2    1    2    0    0 -0.25798176547E+02  0.12012507990E+02  0.34300720795E+03  0.35591599254E+03  0.90622308425E+02 0.  0.
       23    2    1    2    0    0  0.91282052480E+01 -0.43899827589E+01  0.22992021467E+03  0.24787586004E+03  0.92068131261E+02 0.  0.
      -11    1    4    4    0    0  0.38676065251E+01  0.41459023803E+02  0.14912572772E+03  0.15482987988E+03  0.00000000000E+00 0. -1.
       11    1    4    4    0    0  0.52605987230E+01 -0.45849006562E+02  0.80794486950E+02  0.93045980155E+02  0.00000000000E+00 0.  1.
      -13    1    3    3    0    0  0.87813126231E+01 -0.31812515811E+02  0.71777807384E+02  0.79001273702E+02  0.00000000000E+00 0.  1.
       13    1    3    3    0    0 -0.34579489171E+02  0.43825023801E+02  0.27122940056E+03  0.27691471884E+03  0.00000000000E+00 0. -1.
       21    1    1    2  503  502  0.57536171901E+01 -0.17700257401E+02 -0.25997182197E+03  0.26063720272E+03  0.00000000000E+00 0.  1.
        1    1    1    2  501    0  0.10916354109E+02  0.10077732170E+02 -0.49878079660E+01  0.15671812309E+02  0.00000000000E+00 0. -1.
<mgrwt>
<rscale>  2 0.94032187E+02</rscale>
<asrwt>0</asrwt>
<pdfrwt beam="1">  1       21 0.44010237E-01 0.94386619E+02</pdfrwt>
<pdfrwt beam="2">  1        1 0.91389897E-01 0.94386619E+02</pdfrwt>
<totfact> 0.20761055E+03</totfact>
</mgrwt>
</event>
<event>
10   0  0.3368750E-06  0.1052503E+03  0.7546771E-02  0.1270198E+00
        2   -1    0    0  502    0  0.00000000000E+00  0.00000000000E+00  0.10998827639E+04  0.10998827639E+04  0.00000000000E+00 0. -1.
       -2   -1    0    0    0  501  0.00000000000E+00  0.00000000000E+00 -0.64060227179E+02  0.64060227179E+02  0.00000000000E+00 0.  1.
       23    2    1    2    0    0  0.51426522459E+01 -0.25133173110E+02 -0.11166267987E+02  0.95590294135E+02  0.91404023595E+02 0.  0.
       23    2    1    2    0    0 -0.33575839554E+02  0.41882324991E+02  0.10044114530E+04  0.10098696428E+04  0.90071429740E+02 0.  0.
      -11    1    4    4    0    0 -0.15922959779E+02 -0.25140430488E+02  0.17002959465E+03  0.17261415049E+03  0.00000000000E+00 0.  1.
       11    1    4    4    0    0 -0.17652879774E+02  0.67022755478E+02  0.83438185836E+03  0.83725549235E+03  0.00000000000E+00 0. -1.
      -13    1    3    3    0    0  0.83147264777E+01  0.18567472780E+02  0.29484198920E+02  0.35821832837E+02  0.00000000000E+00 0. -1.
       13    1    3    3    0    0 -0.31720742317E+01 -0.43700645890E+02 -0.40650466908E+02  0.59768461298E+02  0.00000000000E+00 0.  1.
        3    1    1    2  502    0  0.24650086337E+02 -0.18526245735E+01  0.26646912981E+02  0.36347172457E+02  0.00000000000E+00 0. -1.
       -3    1    1    2    0  501  0.37831009711E+01 -0.14896527307E+02  0.15930438753E+02  0.22135881678E+02  0.00000000000E+00 0.  1.
<mgrwt>
<rscale>  2 0.10496030E+03</rscale>
<asrwt>0</asrwt>
<pdfrwt beam="1">  1        2 0.16921273E+00 0.10525030E+03</pdfrwt>
<pdfrwt beam="2">  1       -2 0.98554196E-02 0.10525030E+03</pdfrwt>
<totfact> 0.15481654E+03</totfact>
</mgrwt>
</event>
<event>
10   0  0.3368750E-06  0.2164655E+03  0.7546771E-02  0.1164104E+00
        2   -1    0    0  503    0  0.00000000000E+00  0.00000000000E+00  0.11563086993E+04  0.11563086993E+04  0.00000000000E+00 0. -1.
       21   -1    0    0  501  502  0.00000000000E+00  0.00000000000E+00 -0.46406956909E+02  0.46406956909E+02  0.00000000000E+00 0.  1.
       23    2    1    2    0    0 -0.30651130306E+02 -0.69981305594E+02  0.50911898717E+03  0.52260500422E+03  0.89871977910E+02 0.  0.
       23    2    1    2    0    0 -0.67437969178E+01  0.11635667655E+03  0.36483051377E+03  0.39399173487E+03  0.92432831798E+02 0.  0.
      -11    1    3    3    0    0 -0.16978325969E+02 -0.21536409884E+02  0.41470136740E+03  0.41560715180E+03  0.00000000000E+00 0. -1.
       11    1    3    3    0    0 -0.13672804337E+02 -0.48444895710E+02  0.94417619769E+02  0.10699785242E+03  0.00000000000E+00 0.  1.
      -13    1    4    4    0    0 -0.41732091247E+02  0.51010592743E+02  0.10655464026E+03  0.12528982150E+03  0.00000000000E+00 0. -1.
       13    1    4    4    0    0  0.34988294329E+02  0.65346083804E+02  0.25827587351E+03  0.26870191337E+03  0.00000000000E+00 0.  1.
       21    1    1    2  503  502  0.63063479344E+02  0.13973708410E+02  0.32401400299E+02  0.72264221403E+02  0.00000000000E+00 0.  1.
        2    1    1    2  501    0 -0.25668552120E+02 -0.60349079362E+02  0.20355084115E+03  0.21385469572E+03  0.00000000000E+00 0. -1.
<mgrwt>
<rscale>  2 0.18387574E+03</rscale>
<asrwt>0</asrwt>
<pdfrwt beam="1">  1       21 0.71395318E-02 0.21646546E+03</pdfrwt>
<pdfrwt beam="2">  1        2 0.17789365E+00 0.21646546E+03</pdfrwt>
<totfact> 0.39360886E+04</totfact>
</mgrwt>
</event>
<event>
10   0  0.3368750E-06  0.3253140E+03  0.7546771E-02  0.1102038E+00
        2   -1    0    0  502    0  0.00000000000E+00  0.00000000000E+00  0.14502331001E+04  0.14502331001E+04  0.00000000000E+00 0.  1.
        4   -1    0    0  501    0  0.00000000000E+00  0.00000000000E+00 -0.65628262879E+02  0.65628262879E+02  0.00000000000E+00 0. -1.
       23    2    1    2    0    0  0.10849882003E+03 -0.33409802562E+02  0.81777443172E+03  0.83036653395E+03  0.88686812366E+02 0.  0.
       23    2    1    2    0    0 -0.76338380896E+02 -0.54675585517E+02  0.31725027958E+02  0.13455502843E+03  0.91003352843E+02 0.  0.
      -11    1    4    4    0    0  0.47374790613E+01  0.16633038046E+01  0.35403508095E+02  0.35757777795E+02  0.00000000000E+00 0.  1.
       11    1    4    4    0    0 -0.81075859957E+02 -0.56338889322E+02 -0.36784801377E+01  0.98797250639E+02  0.00000000000E+00 0. -1.
      -13    1    3    3    0    0  0.12056649842E+03 -0.42192587286E+02  0.76187173846E+03  0.77250568983E+03  0.00000000000E+00 0.  1.
       13    1    3    3    0    0 -0.12067678383E+02  0.87827847240E+01  0.55902693258E+02  0.57860844122E+02  0.00000000000E+00 0. -1.
        2    1    1    2  501    0  0.12199626078E+02 -0.83375462385E+01  0.17217734459E+03  0.17281025301E+03  0.00000000000E+00 0.  1.
        4    1    1    2  502    0 -0.44360065216E+02  0.96422934317E+02  0.36292803292E+03  0.37812954755E+03  0.00000000000E+00 0. -1.
<mgrwt>
<rscale>  2 0.26867835E+03</rscale>
<asrwt>0</asrwt>
<pdfrwt beam="1">  1        2 0.22311278E+00 0.32531396E+03</pdfrwt>
<pdfrwt beam="2">  1        4 0.10096656E-01 0.32531396E+03</pdfrwt>
<totfact> 0.59591696E+02</totfact>
</mgrwt>
</event>
<event>
10   0  0.3368750E-06  0.3130179E+03  0.7546771E-02  0.1078908E+00
       21   -1    0    0  503  502  0.00000000000E+00  0.00000000000E+00  0.10380499703E+03  0.10380499703E+03  0.00000000000E+00 0. -1.
        2   -1    0    0  502    0  0.00000000000E+00  0.00000000000E+00 -0.43164887259E+03  0.43164887259E+03  0.00000000000E+00 0. -1.
       23    2    1    2    0    0 -0.29050761386E+02  0.92467324993E+02 -0.13987235619E+03  0.19273957883E+03  0.90499261279E+02 0.  0.
       23    2    1    2    0    0  0.51668606455E+02 -0.74544000987E+02 -0.10598207724E+03  0.16653470715E+03  0.90967879013E+02 0.  0.
      -11    1    4    4    0    0 -0.81785562265E+01 -0.61584650492E+02 -0.76570829233E+02  0.98603498151E+02  0.00000000000E+00 0.  1.
       11    1    4    4    0    0  0.59847162682E+02 -0.12959350496E+02 -0.29411248007E+02  0.67931208996E+02  0.00000000000E+00 0. -1.
      -13    1    3    3    0    0 -0.28571064769E+02  0.28176596110E+01 -0.26560500903E+01  0.28832265776E+02  0.00000000000E+00 0.  1.
       13    1    3    3    0    0 -0.47969661702E+00  0.89649665382E+02 -0.13721630610E+03  0.16390731305E+03  0.00000000000E+00 0. -1.
       21    1    1    2  503  501 -0.27137276561E+02 -0.17293189056E+01  0.42557427610E+02  0.50503039194E+02  0.00000000000E+00 0. -1.
        2    1    1    2  501    0  0.45194314923E+01 -0.16194005100E+02 -0.12454686974E+03  0.12567654444E+03  0.00000000000E+00 0. -1.
<mgrwt>
<rscale>  2 0.31301786E+03</rscale>
<asrwt>0</asrwt>
<pdfrwt beam="1">  1       21 0.15970000E-01 0.31301786E+03</pdfrwt>
<pdfrwt beam="2">  1        2 0.66407519E-01 0.31301786E+03</pdfrwt>
<totfact> 0.31716513E+04</totfact>
</mgrwt>
</event>
<event>
10   0  0.3368750E-06  0.3834908E+03  0.7546771E-02  0.1049651E+00
        2   -1    0    0  503    0  0.00000000000E+00  0.00000000000E+00  0.26127833032E+04  0.26127833032E+04  0.00000000000E+00 0. -1.
       21   -1    0    0  501  502  0.00000000000E+00  0.00000000000E+00 -0.25372796336E+02  0.25372796336E+02  0.00000000000E+00 0. -1.
       23    2    1    2    0    0 -0.47904745150E+02 -0.47432549443E+02  0.11368048723E+04  0.11424519609E+04  0.91249404985E+02 0.  0.
       23    2    1    2    0    0 -0.22253711182E+00  0.73824072425E+02  0.26572697754E+03  0.29068146137E+03  0.91841396997E+02 0.  0.
      -11    1    4    4    0    0 -0.17912449212E+02  0.18352158195E+02  0.86056944017E+01  0.27050240726E+02  0.00000000000E+00 0. -1.
       11    1    4    4    0    0  0.17689912100E+02  0.55471914230E+02  0.25712128313E+03  0.26363122065E+03  0.00000000000E+00 0.  1.
      -13    1    3    3    0    0  0.20588274351E+02  0.10617433813E+02  0.27959641533E+03  0.28055438405E+03  0.00000000000E+00 0.  1.
       13    1    3    3    0    0 -0.68493019501E+02 -0.58049983256E+02  0.85720845699E+03  0.86189757686E+03  0.00000000000E+00 0. -1.
       21    1    1    2  503  502  0.41161637834E+02 -0.11152124142E+03  0.89380851601E+03  0.90167895118E+03  0.00000000000E+00 0. -1.
        2    1    1    2  501    0  0.69656444279E+01  0.85129718437E+02  0.29107014098E+03  0.30334372605E+03  0.00000000000E+00 0. -1.
<mgrwt>
<rscale>  2 0.38349079E+03</rscale>
<asrwt>0</asrwt>
<pdfrwt beam="1">  1       21 0.39035071E-02 0.38349079E+03</pdfrwt>
<pdfrwt beam="2">  1        2 0.40196666E+00 0.38349079E+03</pdfrwt>
<totfact> 0.17525704E+04</totfact>
</mgrwt>
</event>
<event>
10   0  0.3368750E-06  0.4603291E+03  0.7546771E-02  0.1024686E+00
        1   -1    0    0  503    0  0.00000000000E+00  0.00000000000E+00  0.14138547363E+04  0.14138547363E+04  0.00000000000E+00 0. -1.
       21   -1    0    0  501  502  0.00000000000E+00  0.00000000000E+00 -0.54918796072E+02  0.54918796072E+02  0.00000000000E+00 0. -1.
       23    2    1    2    0    0  0.65507084213E+01 -0.22645045421E+02  0.59569487757E+03  0.60290837070E+03  0.89946686574E+02 0.  0.
       23    2    1    2    0    0  0.19330436017E+02 -0.70998730154E+02  0.32763518501E+03  0.34723590180E+03  0.88393843683E+02 0.  0.
      -11    1    3    3    0    0  0.31160090920E+02  0.14828492694E+02  0.11340154456E+03  0.11853584172E+03  0.00000000000E+00 0.  1.
       11    1    3    3    0    0 -0.24609382499E+02 -0.37473538116E+02  0.48229333301E+03  0.48437252898E+03  0.00000000000E+00 0. -1.
      -13    1    4    4    0    0  0.34655913003E+02 -0.87256621612E+01  0.21214853244E+03  0.21513755902E+03  0.00000000000E+00 0.  1.
       13    1    4    4    0    0 -0.15325476986E+02 -0.62273067993E+02  0.11548665258E+03  0.13209834278E+03  0.00000000000E+00 0. -1.
       21    1    1    2  503  502  0.22825469515E+01  0.24446421823E+02  0.44288610350E+03  0.44356615993E+03  0.00000000000E+00 0.  1.
        1    1    1    2  501    0 -0.28163691390E+02  0.69197353752E+02 -0.72802258935E+01  0.75063099910E+02  0.00000000000E+00 0. -1.
<mgrwt>
<rscale>  2 0.46032907E+03</rscale>
<asrwt>0</asrwt>
<pdfrwt beam="1">  1       21 0.84490455E-02 0.46032907E+03</pdfrwt>
<pdfrwt beam="2">  1        1 0.21751611E+00 0.46032907E+03</pdfrwt>
<totfact> 0.95159426E+03</totfact>
</mgrwt>
</event>
<event>
10   0  0.3368750E-06  0.1678970E+03  0.7546771E-02  0.1203951E+00
       21   -1    0    0  501  502  0.00000000000E+00  0.00000000000E+00  0.48965318514E+02  0.48965318514E+02  0.00000000000E+00 0.  1.
        2   -1    0    0  503    0  0.00000000000E+00  0.00000000000E+00 -0.69678846739E+03  0.69678846739E+03  0.00000000000E+00 0.  1.
       23    2    1    2    0    0  0.12418101865E+02 -0.37875893876E+02 -0.46350297984E+03  0.47394953365E+03  0.90577897624E+02 0.  0.
       23    2    1    2    0    0  0.17550338562E+02  0.21746529422E+01 -0.17592861156E+03  0.19878637571E+03  0.90842739408E+02 0.  0.
      -11    1    3    3    0    0 -0.35137668239E+02  0.34992378129E+01 -0.19252045937E+03  0.19573203026E+03  0.00000000000E+00 0.  1.
       11    1    3    3    0    0  0.47555770104E+02 -0.41375131689E+02 -0.27098252047E+03  0.27821750339E+03  0.00000000000E+00 0. -1.
      -13    1    4    4    0    0  0.45654873019E+02  0.26704907686E+02 -0.12435211390E+03  0.13513314825E+03  0.00000000000E+00 0.  1.
       13    1    4    4    0    0 -0.28104534457E+02 -0.24530254744E+02 -0.51576497655E+02  0.63653227453E+02  0.00000000000E+00 0. -1.
       21    1    1    2  503  502  0.12028267302E+02 -0.41940653361E+00  0.89219148070E+01  0.14981845011E+02  0.00000000000E+00 0.  1.
        2    1    1    2  501    0 -0.41996707729E+02  0.36120647467E+02 -0.17313472287E+02  0.58036031533E+02  0.00000000000E+00 0.  1.
<mgrwt>
<rscale>  2 0.14720460E+03</rscale>
<asrwt>0</asrwt>
<pdfrwt beam="1">  1       21 0.75331259E-02 0.16789702E+03</pdfrwt>
<pdfrwt beam="2">  1        2 0.10719823E+00 0.16789702E+03</pdfrwt>
<totfact> 0.70874573E+04</totfact>
</mgrwt>
</event>
<event>
10   0  0.3368750E-06  0.1029390E+03  0.7546771E-02  0.1274288E+00
        1   -1    0    0  503    0  0.00000000000E+00  0.00000000000E+00  0.32468096634E+04  0.32468096634E+04  0.00000000000E+00 0. -1.
       21   -1    0    0  501  502  0.00000000000E+00  0.00000000000E+00 -0.21125616552E+02  0.21125616552E+02  0.00000000000E+00 0. -1.
       23    2    1    2    0    0 -0.20424214863E+02 -0.11806688699E+02  0.85936168019E+03  0.86449059159E+03  0.91021640987E+02 0.  0.
       23    2    1    2    0    0  0.55988414840E+02  0.21871699253E+02  0.23201179528E+04  0.23226853124E+04  0.91140945141E+02 0.  0.
      -11    1    3    3    0    0 -0.24068234178E+02 -0.49994798516E+02  0.48142533744E+03  0.48461233508E+03  0.00000000000E+00 0.  1.
       11    1    3    3    0    0  0.36440193152E+01  0.38188109816E+02  0.37793634274E+03  0.37987825652E+03  0.00000000000E+00 0. -1.
      -13    1    4    4    0    0  0.78186879999E+02  0.22614831251E+02  0.20646412917E+04  0.20662449714E+04  0.00000000000E+00 0. -1.
       13    1    4    4    0    0 -0.22198465159E+02 -0.74313199882E+00  0.25547666113E+03  0.25644034098E+03  0.00000000000E+00 0.  1.
       21    1    1    2  503  502 -0.26311901156E+02  0.49330373332E+01  0.54921830352E+02  0.61098759799E+02  0.00000000000E+00 0.  1.
        1    1    1    2  501    0 -0.92522988219E+01 -0.14998047886E+02 -0.87174165289E+01  0.19660616085E+02  0.00000000000E+00 0. -1.
<mgrwt>
<rscale>  2 0.10291259E+03</rscale>
<asrwt>0</asrwt>
<pdfrwt beam="1">  1       21 0.32500949E-02 0.10293900E+03</pdfrwt>
<pdfrwt beam="2">  1        1 0.49950918E+00 0.10293900E+03</pdfrwt>
<totfact> 0.33297958E+03</totfact>
</mgrwt>
</event>
<event>
10   0  0.3368750E-06  0.1346920E+03  0.7546771E-02  0.1226071E+00
       -1   -1    0    0    0  501  0.00000000000E+00  0.00000000000E+00  0.17637553999E+03  0.17637553999E+03  0.00000000000E+00 0.  1.
        1   -1    0    0  503    0  0.00000000000E+00  0.00000000000E+00 -0.86512537876E+03  0.86512537876E+03  0.00000000000E+00 0. -1.
       23    2    1    2    0    0 -0.38387892359E+02 -0.66100557063E+02  0.77141481128E+02  0.15076277256E+03  0.10457385694E+03 0.  0.
       23    2    1    2    0    0  0.87842090297E+01  0.12863395384E+03 -0.11074419199E+03  0.19013669871E+03  0.85228115830E+02 0.  0.
      -11    1    4    4    0    0  0.31546113132E+02  0.10171056116E+03 -0.45146539832E+02  0.11566505766E+03  0.00000000000E+00 0. -1.
       11    1    4    4    0    0 -0.22761904103E+02  0.26923392680E+02 -0.65597652156E+02  0.74471641046E+02  0.00000000000E+00 0.  1.
      -13    1    3    3    0    0  0.22092468633E+02 -0.16409257222E+02 -0.13789500942E+02  0.30781345473E+02  0.00000000000E+00 0. -1.
       13    1    3    3    0    0 -0.60480360992E+02 -0.49691299841E+02  0.90930982070E+02  0.11998142709E+03  0.00000000000E+00 0.  1.
       21    1    1    2  502  501  0.10929227657E+02 -0.56061794430E+02 -0.13553185056E+02  0.58703165478E+02  0.00000000000E+00 0.  1.
       21    1    1    2  503  502  0.18674455672E+02 -0.64716023452E+01 -0.64159394286E+03  0.64189828200E+03  0.00000000000E+00 0. -1.
<mgrwt>
<rscale>  2 0.13093790E+03</rscale>
<asrwt>0</asrwt>
<pdfrwt beam="1">  1        1 0.13309621E+00 0.13469205E+03</pdfrwt>
<pdfrwt beam="2">  1       -1 0.27134698E-01 0.13469205E+03</pdfrwt>
<totfact> 0.25543554E+02</totfact>
</mgrwt>
</event>
<event>
10   0  0.3368750E-06  0.1268134E+03  0.7546771E-02  0.1232709E+00
       21   -1    0    0  501  502  0.00000000000E+00  0.00000000000E+00  0.19312797117E+02  0.19312797117E+02  0.00000000000E+00 0.  1.
        2   -1    0    0  503    0  0.00000000000E+00  0.00000000000E+00 -0.18704151863E+04  0.18704151863E+04  0.00000000000E+00 0. -1.
       23    2    1    2    0    0  0.54527830691E+02 -0.49838003745E+02 -0.47126577464E+03  0.48537999660E+03  0.89695037839E+02 0.  0.
       23    2    1    2    0    0 -0.76976083161E+02  0.64526984372E+02 -0.73685417219E+03  0.74925367538E+03  0.91312375450E+02 0.  0.
      -11    1    4    4    0    0 -0.59440501990E+02  0.82728111330E+02 -0.67149656721E+03  0.67917947073E+03  0.00000000000E+00 0. -1.
       11    1    4    4    0    0 -0.17535581172E+02 -0.18201126957E+02 -0.65357604971E+02  0.70074204649E+02  0.00000000000E+00 0.  1.
      -13    1    3    3    0    0 -0.22790258544E+02  0.63189532594E+00 -0.12222720195E+03  0.12433536935E+03  0.00000000000E+00 0. -1.
       13    1    3    3    0    0  0.77318089235E+02 -0.50469899071E+02 -0.34903857269E+03  0.36104462724E+03  0.00000000000E+00 0.  1.
       21    1    1    2  503  502  0.72863151903E+02 -0.66078027372E+01 -0.33374487244E+03  0.34166993113E+03  0.00000000000E+00 0.  1.
        2    1    1    2  501    0 -0.50414899432E+02 -0.80811778902E+01 -0.30923756995E+03  0.31342438034E+03  0.00000000000E+00 0. -1.
<mgrwt>
<rscale>  2 0.12652252E+03</rscale>
<asrwt>0</asrwt>
<pdfrwt beam="1">  1       21 0.29711996E-02 0.12681341E+03</pdfrwt>
<pdfrwt beam="2">  1        2 0.28775618E+00 0.12681341E+03</pdfrwt>
<totfact> 0.73106689E+04</totfact>
</mgrwt>
</event>
<event>
10   0  0.3368750E-06  0.3908924E+03  0.7546771E-02  0.1046980E+00
       21   -1    0    0  503  502  0.00000000000E+00  0.00000000000E+00  0.32796288019E+03  0.32796288019E+03  0.00000000000E+00 0. -1.
       -3   -1    0    0    0  501  0.00000000000E+00  0.00000000000E+00 -0.14678351286E+03  0.14678351286E+03  0.00000000000E+00 0.  1.
       23    2    1    2    0    0 -0.66220982136E+02 -0.20897556006E+02 -0.57507851369E+01  0.11430517181E+03  0.90612772006E+02 0.  0.
       23    2    1    2    0    0 -0.62398973989E+02  0.62023664340E+02  0.74138851899E+02  0.14788870074E+03  0.92918951520E+02 0.  0.
      -11    1    4    4    0    0 -0.65779514119E+02  0.58378538187E+02  0.93226271476E+02  0.12816448764E+03  0.00000000000E+00 0. -1.
       11    1    4    4    0    0  0.33805401292E+01  0.36451261525E+01 -0.19087419577E+02  0.19724213098E+02  0.00000000000E+00 0.  1.
      -13    1    3    3    0    0 -0.59681909189E+02 -0.51589617532E+02 -0.17483250606E+02  0.80802741125E+02  0.00000000000E+00 0. -1.
       13    1    3    3    0    0 -0.65390729464E+01  0.30692061526E+02  0.11732465469E+02  0.33502430684E+02  0.00000000000E+00 0.  1.
       21    1    1    2  503  501  0.95632429750E+00  0.10214777619E+02  0.66630401773E+02  0.67415626366E+02  0.00000000000E+00 0. -1.
       -3    1    1    2    0  502  0.12766363183E+03 -0.51340885953E+02  0.46160898793E+02  0.14513689414E+03  0.00000000000E+00 0.  1.
<mgrwt>
<rscale>  2 0.39089243E+03</rscale>
<asrwt>0</asrwt>
<pdfrwt beam="1">  1       21 0.50455828E-01 0.39089243E+03</pdfrwt>
<pdfrwt beam="2">  1       -3 0.22582079E-01 0.39089243E+03</pdfrwt>
<totfact> 0.33149628E+03</totfact>
</mgrwt>
</event>
<event>
10   0  0.3368750E-06  0.9427440E+02  0.7546771E-02  0.1294806E+00
       21   -1    0    0  501  502  0.00000000000E+00  0.00000000000E+00  0.51908499531E+02  0.51908499531E+02  0.00000000000E+00 0. -1.
        1   -1    0    0  503    0  0.00000000000E+00  0.00000000000E+00 -0.62172834405E+03  0.62172834405E+03  0.00000000000E+00 0. -1.
       23    2    1    2    0    0 -0.62416448418E+01  0.17318746890E+02 -0.15403649885E+03  0.17913015783E+03  0.89562678292E+02 0.  0.
       23    2    1    2    0    0 -0.13744041995E+02 -0.36462765602E+01 -0.41112869352E+03  0.42176331415E+03  0.93033846027E+02 0.  0.
      -11    1    3    3    0    0 -0.28129040801E+02  0.46562617747E+02 -0.10123389449E+03  0.11492441734E+03  0.00000000000E+00 0.  1.
       11    1    3    3    0    0  0.21887395959E+02 -0.29243870858E+02 -0.52802604359E+02  0.64205740489E+02  0.00000000000E+00 0. -1.
      -13    1    4    4    0    0 -0.41333803712E+01 -0.34104690649E+02 -0.59643069394E+02  0.68829575651E+02  0.00000000000E+00 0.  1.
       13    1    4    4    0    0 -0.96106616243E+01  0.30458414089E+02 -0.35148562413E+03  0.35293373850E+03  0.00000000000E+00 0. -1.
       21    1    1    2  503  502 -0.77507204969E+01 -0.84172325116E+01 -0.31667576980E+02  0.33671336522E+02  0.00000000000E+00 0. -1.
        1    1    1    2  501    0  0.27736407334E+02 -0.52552378178E+01  0.27012924835E+02  0.39072035069E+02  0.00000000000E+00 0. -1.
<mgrwt>
<rscale>  2 0.93406551E+02</rscale>
<asrwt>0</asrwt>
<pdfrwt beam="1">  1       21 0.79859230E-02 0.94274400E+02</pdfrwt>
<pdfrwt beam="2">  1        1 0.95650514E-01 0.94274400E+02</pdfrwt>
<totfact> 0.44673114E+04</totfact>
</mgrwt>
</event>
<event>
10   0  0.3368750E-06  0.9603420E+02  0.7546771E-02  0.1289543E+00
       -2   -1    0    0    0  501  0.00000000000E+00  0.00000000000E+00  0.10909471934E+02  0.10909471934E+02  0.00000000000E+00 0.  1.
        2   -1    0    0  502    0  0.00000000000E+00  0.00000000000E+00 -0.21780812917E+04  0.21780812917E+04  0.00000000000E+00 0. -1.
       23    2    1    2    0    0 -0.36285497394E+02  0.26113373203E+02 -0.14845022036E+04  0.14877709337E+04  0.87846530709E+02 0.  0.
       23    2    1    2    0    0  0.23360146158E+02 -0.38540837121E+02 -0.32286077125E+03  0.33796307350E+03  0.89156429288E+02 0.  0.
      -11    1    3    3    0    0 -0.52775003357E+02 -0.13542648375E+02 -0.71634308134E+03  0.71841214806E+03  0.00000000000E+00 0.  1.
       11    1    3    3    0    0  0.16489505963E+02  0.39656021578E+02 -0.76815912227E+03  0.76935878560E+03  0.00000000000E+00 0. -1.
      -13    1    4    4    0    0  0.51942348699E+02 -0.60910493387E+01 -0.22459203910E+03  0.23060072094E+03  0.00000000000E+00 0. -1.
       13    1    4    4    0    0 -0.28582202542E+02 -0.32449787782E+02 -0.98268732148E+02  0.10736235256E+03  0.00000000000E+00 0.  1.
       21    1    1    2  502  503  0.11684497789E+02 -0.75328982700E+01 -0.29733823063E+03  0.29766305689E+03  0.00000000000E+00 0. -1.
       21    1    1    2  503  501  0.12408534472E+01  0.19960362188E+02 -0.62470614307E+02  0.65593699605E+02  0.00000000000E+00 0.  1.
<mgrwt>
<rscale>  2 0.95729038E+02</rscale>
<asrwt>0</asrwt>
<pdfrwt beam="1">  1        2 0.33508943E+00 0.96034198E+02</pdfrwt>
<pdfrwt beam="2">  1       -2 0.16783803E-02 0.96034198E+02</pdfrwt>
<totfact> 0.59105867E+03</totfact>
</mgrwt>
</event>
<event>
10   0  0.3368750E-06  0.1419699E+03  0.7546771E-02  0.1211854E+00
       -2   -1    0    0    0  501  0.00000000000E+00  0.00000000000E+00  0.67728911524E+03  0.67728911524E+03  0.00000000000E+00 0.  1.
        2   -1    0    0  503    0  0.00000000000E+00  0.00000000000E+00 -0.50165595188E+03  0.50165595188E+03  0.00000000000E+00 0. -1.
       23    2    1    2    0    0 -0.10665718882E+03 -0.26455199159E+02  0.32238190824E+03  0.35321778019E+03  0.93579228408E+02 0.  0.
       23    2    1    2    0    0  0.11462451746E+03  0.11888472643E+03 -0.27854766469E+03  0.33563901323E+03  0.88274500957E+02 0.  0.
      -11    1    4    4    0    0 -0.10375569263E+01 -0.11207235427E+02 -0.31283151072E+02  0.33246265825E+02  0.00000000000E+00 0.  1.
       11    1    4    4    0    0  0.11566207439E+03  0.13009196185E+03 -0.24726451362E+03  0.30239274741E+03  0.00000000000E+00 0. -1.
      -13    1    3    3    0    0 -0.10286320918E+02 -0.28814068374E+02  0.17123091870E+03  0.17394276775E+03  0.00000000000E+00 0. -1.
       13    1    3    3    0    0 -0.96370867906E+02  0.23588692142E+01  0.15115098954E+03  0.17927501244E+03  0.00000000000E+00 0.  1.
       21    1    1    2  502  501  0.81929412828E+01 -0.77261501569E+01  0.30045516741E+03  0.30066613595E+03  0.00000000000E+00 0. -1.
       21    1    1    2  503  502 -0.16160269918E+02 -0.84703377111E+02 -0.16865624760E+03  0.18942213776E+03  0.00000000000E+00 0.  1.
<mgrwt>
<rscale>  2 0.14110218E+03</rscale>
<asrwt>0</asrwt>
<pdfrwt beam="1">  1        2 0.77177839E-01 0.14196989E+03</pdfrwt>
<pdfrwt beam="2">  1       -2 0.10419833E+00 0.14196989E+03</pdfrwt>
<totfact> 0.50396672E+01</totfact>
</mgrwt>
</event>
<event>
10   0  0.3368750E-06  0.1190252E+03  0.7546771E-02  0.1248243E+00
       -4   -1    0    0    0  501  0.00000000000E+00  0.00000000000E+00  0.85695816818E+03  0.85695816818E+03  0.00000000000E+00 0.  1.
        4   -1    0    0  503    0  0.00000000000E+00  0.00000000000E+00 -0.27194407929E+02  0.27194407929E+02  0.00000000000E+00 0. -1.
       23    2    1    2    0    0  0.21442369460E+01  0.73528061823E+02  0.53227506560E+03  0.54500437642E+03  0.91115592658E+02 0.  0.
       23    2    1    2    0    0  0.17760075164E+02 -0.42137271997E+02  0.22985793921E+03  0.25514881094E+03  0.10087256092E+03 0.  0.
      -11    1    4    4    0    0 -0.34439836588E-01 -0.30211328054E+02  0.66746814530E+01  0.30939891748E+02  0.00000000000E+00 0. -1.
       11    1    4    4    0    0  0.17794515000E+02 -0.11925943943E+02  0.22318325776E+03  0.22420891919E+03  0.00000000000E+00 0.  1.
      -13    1    3    3    0    0 -0.33281284550E+02  0.71953024336E+02  0.31317826501E+03  0.32305650788E+03  0.00000000000E+00 0.  1.
       13    1    3    3    0    0  0.35425521496E+02  0.15750374868E+01  0.21909680059E+03  0.22194786853E+03  0.00000000000E+00 0. -1.
       21    1    1    2  502  501 -0.17771286558E+02 -0.10486046898E+02  0.10552694365E+02  0.23176176644E+02  0.00000000000E+00 0. -1.
       21    1    1    2  503  502 -0.21330255519E+01 -0.20904742927E+02  0.57078061073E+02  0.60823212105E+02  0.00000000000E+00 0.  1.
<mgrwt>
<rscale>  2 0.11693379E+03</rscale>
<asrwt>0</asrwt>
<pdfrwt beam="1">  1        4 0.41837551E-02 0.11902524E+03</pdfrwt>
<pdfrwt beam="2">  1       -4 0.13183972E+00 0.11902524E+03</pdfrwt>
<totfact> 0.22891094E+02</totfact>
</mgrwt>
</event>
<event>
10   0  0.3368750E-06  0.1261387E+03  0.7546771E-02  0.1234013E+00
        2   -1    0    0  502    0  0.00000000000E+00  0.00000000000E+00  0.16873347647E+03  0.16873347647E+03  0.00000000000E+00 0. -1.
       21   -1    0    0  503  502  0.00000000000E+00  0.00000000000E+00 -0.59194539053E+03  0.59194539053E+03  0.00000000000E+00 0. -1.
       23    2    1    2    0    0  0.10350619354E+03 -0.70422522652E+02 -0.97696842517E+02  0.18597800039E+03  0.96800205548E+02 0.  0.
       23    2    1    2    0    0 -0.24383165805E+02  0.69401569706E+02  0.55663006332E+02  0.13198876739E+03  0.94400994648E+02 0.  0.
      -11    1    4    4    0    0 -0.17696173532E+02  0.93092386016E+02  0.47895285278E+02  0.10617582231E+03  0.00000000000E+00 0. -1.
       11    1    4    4    0    0 -0.66869922731E+01 -0.23690816310E+02  0.77677210535E+01  0.25812945076E+02  0.00000000000E+00 0.  1.
      -13    1    3    3    0    0 -0.16075231139E+01 -0.28154537612E+02  0.97478026615E+01  0.29837589973E+02  0.00000000000E+00 0.  1.
       13    1    3    3    0    0  0.10511371665E+03 -0.42267985041E+02 -0.10744464518E+03  0.15614041042E+03  0.00000000000E+00 0. -1.
       21    1    1    2  503  501 -0.19781619221E+02 -0.21434958876E+02 -0.37806405682E+03  0.37918755383E+03  0.00000000000E+00 0. -1.
        2    1    1    2  501    0 -0.59341408515E+02  0.22455911823E+02 -0.31140210582E+01  0.63524545394E+02  0.00000000000E+00 0. -1.
<mgrwt>
<rscale>  2 0.12567827E+03</rscale>
<asrwt>0</asrwt>
<pdfrwt beam="1">  1       21 0.91068522E-01 0.12613870E+03</pdfrwt>
<pdfrwt beam="2">  1        2 0.25958996E-01 0.12613870E+03</pdfrwt>
<totfact> 0.26655734E+03</totfact>
</mgrwt>
</event>
<event>
10   0  0.3368750E-06  0.1010009E+03  0.7546771E-02  0.1279429E+00
        1   -1    0    0  502    0  0.00000000000E+00  0.00000000000E+00  0.21539853026E+04  0.21539853026E+04  0.00000000000E+00 0. -1.
       21   -1    0    0  503  502  0.00000000000E+00  0.00000000000E+00 -0.62661208871E+02  0.62661208871E+02  0.00000000000E+00 0. -1.
       23    2    1    2    0    0  0.33095107204E+02 -0.11009795216E+02  0.16386463335E+04  0.16416493843E+04  0.92921435259E+02 0.  0.
       23    2    1    2    0    0 -0.47493772747E+02  0.36869348114E+02  0.50239079725E+03  0.51398536522E+03  0.90384928074E+02 0.  0.
      -11    1    4    4    0    0 -0.23724613731E+02 -0.27935310674E+02  0.12214066071E+03  0.12752089977E+03  0.00000000000E+00 0.  1.
       11    1    4    4    0    0 -0.23769159016E+02  0.64804658788E+02  0.38025013654E+03  0.38646446545E+03  0.00000000000E+00 0. -1.
      -13    1    3    3    0    0  0.59385649767E+02 -0.16061492944E+01  0.14179283214E+04  0.14191722798E+04  0.00000000000E+00 0.  1.
       13    1    3    3    0    0 -0.26290542563E+02 -0.94036459214E+01  0.22071801204E+03  0.22247710450E+03  0.00000000000E+00 0. -1.
       21    1    1    2  503  501 -0.10542452321E+01 -0.11581401914E+02 -0.30020085839E+02  0.32193879187E+02  0.00000000000E+00 0. -1.
        1    1    1    2  501    0  0.15452910775E+02 -0.14278150984E+02 -0.19692951086E+02  0.28817882806E+02  0.00000000000E+00 0. -1.
<mgrwt>
<rscale>  2 0.10041362E+03</rscale>
<asrwt>0</asrwt>
<pdfrwt beam="1">  1       21 0.96401860E-02 0.10100087E+03</pdfrwt>
<pdfrwt beam="2">  1        1 0.33138235E+00 0.10100087E+03</pdfrwt>
<totfact> 0.28357830E+03</totfact>
</mgrwt>
</event>
<event>
10   0  0.3368750E-06  0.1149717E+03  0.7546771E-02  0.1252357E+00
        1   -1    0    0  503    0  0.00000000000E+00  0.00000000000E+00  0.47875463007E+03  0.47875463007E+03  0.00000000000E+00 0. -1.
       -1   -1    0    0    0  501  0.00000000000E+00  0.00000000000E+00 -0.76970214535E+02  0.76970214535E+02  0.00000000000E+00 0.  1.
       23    2    1    2    0    0 -0.62353340326E+02 -0.68340681128E+02  0.30886649893E+03  0.33439567289E+03  0.88676739559E+02 0.  0.
       23    2    1    2    0    0  0.20589722916E+01  0.38948110022E+02  0.85543821118E+02  0.13068769542E+03  0.90776284138E+02 0.  0.
      -11    1    4    4    0    0 -0.36121832892E+02  0.45268218202E+02  0.37495956583E+02  0.68992355742E+02  0.00000000000E+00 0.  1.
       11    1    4    4    0    0  0.38180805183E+02 -0.63201081801E+01  0.48047864535E+02  0.61695339680E+02  0.00000000000E+00 0. -1.
      -13    1    3    3    0    0 -0.18341181206E+02 -0.21513036907E+02  0.12100347771E+02  0.30751066668E+02  0.00000000000E+00 0.  1.
       13    1    3    3    0    0 -0.44012159120E+02 -0.46827644221E+02  0.29676615116E+03  0.30364460622E+03  0.00000000000E+00 0. -1.
       21    1    1    2  502  501  0.27162100109E+02  0.26826519573E+02 -0.23873336774E+02  0.45026414952E+02  0.00000000000E+00 0.  1.
       21    1    1    2  503  502  0.33132267926E+02  0.25660515331E+01  0.31247432258E+02  0.45615061340E+02  0.00000000000E+00 0. -1.
<mgrwt>
<rscale>  2 0.11455687E+03</rscale>
<asrwt>0</asrwt>
<pdfrwt beam="1">  1        1 0.73654558E-01 0.11497170E+03</pdfrwt>
<pdfrwt beam="2">  1       -1 0.11841571E-01 0.11497170E+03</pdfrwt>
<totfact> 0.21817745E+03</totfact>
</mgrwt>
</event>
<event>
10   0  0.3368750E-06  0.9482606E+02  0.7546771E-02  0.1293147E+00
       21   -1    0    0  503  502  0.00000000000E+00  0.00000000000E+00  0.23620709661E+04  0.23620709661E+04  0.00000000000E+00 0.  1.
       -2   -1    0    0    0  501  0.00000000000E+00  0.00000000000E+00 -0.76084957245E+02  0.76084957245E+02  0.00000000000E+00 0.  1.
       23    2    1    2    0    0 -0.26643342784E+02  0.17825155711E+02 -0.18674878410E+02  0.10052622748E+03  0.93430013578E+02 0.  0.
       23    2    1    2    0    0 -0.32332388686E+02 -0.52808527715E+01  0.64276347966E+03  0.64994824718E+03  0.90634223440E+02 0.  0.
      -11    1    4    4    0    0 -0.60038674570E+02  0.14850176570E+02  0.38952998381E+03  0.39440940465E+03  0.00000000000E+00 0.  1.
       11    1    4    4    0    0  0.27706285884E+02 -0.20131029342E+02  0.25323349585E+03  0.25553884253E+03  0.00000000000E+00 0. -1.
      -13    1    3    3    0    0 -0.60573678868E+02  0.21486552121E+02 -0.79957985415E+01  0.64767084912E+02  0.00000000000E+00 0.  1.
       13    1    3    3    0    0  0.33930336084E+02 -0.36613964099E+01 -0.10679079869E+02  0.35759142570E+02  0.00000000000E+00 0. -1.
       21    1    1    2  503  501  0.11026192349E+02 -0.89165287648E+01 -0.85391530586E+01  0.16552901192E+02  0.00000000000E+00 0.  1.
       -2    1    1    2    0  502  0.47949539121E+02 -0.36277741751E+01  0.16704365607E+04  0.16711285475E+04  0.00000000000E+00 0.  1.
<mgrwt>
<rscale>  2 0.94130088E+02</rscale>
<asrwt>0</asrwt>
<pdfrwt beam="1">  1       21 0.36339553E+00 0.94826060E+02</pdfrwt>
<pdfrwt beam="2">  1       -2 0.11705378E-01 0.94826060E+02</pdfrwt>
<totfact> 0.70490409E+01</totfact>
</mgrwt>
</event>
<event>
10   0  0.3368750E-06  0.9403561E+02  0.7546771E-02  0.1293827E+00
        1   -1    0    0  502    0  0.00000000000E+00  0.00000000000E+00  0.17582221957E+03  0.17582221957E+03  0.00000000000E+00 0. -1.
       -1   -1    0    0    0  501  0.00000000000E+00  0.00000000000E+00 -0.94320070887E+02  0.94320070887E+02  0.00000000000E+00 0.  1.
       23    2    1    2    0    0  0.20197552048E+01  0.33318983752E+02  0.57577445907E+02  0.11215638861E+03  0.90275462550E+02 0.  0.
       23    2    1    2    0    0  0.12287984169E+02 -0.72985962307E+01  0.26104639729E+02  0.95847767181E+02  0.91110252971E+02 0.  0.
      -11    1    3    3    0    0 -0.60185585857E+01  0.18387480880E+02 -0.22861462899E+02  0.29949440503E+02  0.00000000000E+00 0.  1.
       11    1    3    3    0    0  0.80383137904E+01  0.14931502872E+02  0.80438908806E+02  0.82206948103E+02  0.00000000000E+00 0. -1.
      -13    1    4    4    0    0  0.49230467721E+01 -0.26145144979E+02  0.54694520215E+02  0.60821834378E+02  0.00000000000E+00 0.  1.
       13    1    4    4    0    0  0.73649373967E+01  0.18846548748E+02 -0.28589880486E+02  0.35025932804E+02  0.00000000000E+00 0. -1.
       21    1    1    2  502  503 -0.36632146241E+01  0.10640212106E+02  0.16235237760E+02  0.19753890760E+02  0.00000000000E+00 0.  1.
       21    1    1    2  503  501 -0.10644524750E+02 -0.36660599627E+02 -0.18415174713E+02  0.42384243911E+02  0.00000000000E+00 0.  1.
<mgrwt>
<rscale>  2 0.93832811E+02</rscale>
<asrwt>0</asrwt>
<pdfrwt beam="1">  1        1 0.27049572E-01 0.94035614E+02</pdfrwt>
<pdfrwt beam="2">  1       -1 0.14510780E-01 0.94035614E+02</pdfrwt>
<totfact> 0.54495181E+03</totfact>
</mgrwt>
</event>
<event>
10   0  0.3368750E-06  0.1005377E+03  0.7546771E-02  0.1279652E+00
        4   -1    0    0  502    0  0.00000000000E+00  0.00000000000E+00  0.28298365346E+03  0.28298365346E+03  0.00000000000E+00 0. -1.
        1   -1    0    0  501    0  0.00000000000E+00  0.00000000000E+00 -0.66225827056E+03  0.66225827056E+03  0.00000000000E+00 0. -1.
       23    2    1    2    0    0 -0.24967089044E+02  0.69324316336E+01 -0.36747784041E+03  0.37939501695E+03  0.90714946667E+02 0.  0.
       23    2    1    2    0    0  0.11668864604E+03 -0.58044016341E+02 -0.15058262546E+03  0.21925729648E+03  0.91723971893E+02 0.  0.
      -11    1    4    4    0    0  0.79188012072E+02  0.11631483292E+02 -0.70156108697E+02  0.10643266532E+03  0.00000000000E+00 0.  1.
       11    1    4    4    0    0  0.37500633972E+02 -0.69675499634E+02 -0.80426516759E+02  0.11282463116E+03  0.00000000000E+00 0. -1.
      -13    1    3    3    0    0  0.11484067543E+02 -0.34540947462E+02 -0.19253074862E+03  0.19594144539E+03  0.00000000000E+00 0. -1.
       13    1    3    3    0    0 -0.36451156588E+02  0.41473379095E+02 -0.17494709179E+03  0.18345357156E+03  0.00000000000E+00 0.  1.
        4    1    1    2  501    0 -0.30834739084E+02  0.89677140268E+01  0.22822590720E+03  0.23047400232E+03  0.00000000000E+00 0. -1.
        1    1    1    2  502    0 -0.60886817916E+02  0.42143870681E+02 -0.89440058441E+02  0.11611560828E+03  0.00000000000E+00 0. -1.
<mgrwt>
<rscale>  2 0.10030693E+03</rscale>
<asrwt>0</asrwt>
<pdfrwt beam="1">  1        4 0.43535947E-01 0.10053765E+03</pdfrwt>
<pdfrwt beam="2">  1        1 0.10188589E+00 0.10053765E+03</pdfrwt>
<totfact> 0.71836379E+01</totfact>
</mgrwt>
</event>
<event>
10   0  0.3368750E-06  0.4009811E+03  0.7546771E-02  0.1075692E+00
        2   -1    0    0  501    0  0.00000000000E+00  0.00000000000E+00  0.15195091913E+04  0.15195091913E+04  0.00000000000E+00 0. -1.
       -3   -1    0    0    0  501  0.00000000000E+00  0.00000000000E+00 -0.33738559982E+03  0.33738559982E+03  0.00000000000E+00 0.  1.
       23    2    1    2    0    0 -0.77775310536E+01 -0.13773985775E+03  0.28641164259E+02  0.16469213075E+03  0.85266776880E+02 0.  0.
       23    2    1    2    0    0  0.14141614734E+03 -0.31538434160E+02 -0.77287926981E+02  0.18676466145E+03  0.88963001020E+02 0.  0.
      -11    1    3    3    0    0 -0.40928668972E+02 -0.11385941871E+03  0.25971228071E+02  0.12374824386E+03  0.00000000000E+00 0.  1.
       11    1    3    3    0    0  0.33151137918E+02 -0.23880439038E+02  0.26699361883E+01  0.40943886884E+02  0.00000000000E+00 0. -1.
      -13    1    4    4    0    0  0.94797826834E+02  0.23722855163E+02 -0.43890125121E+02  0.10712490333E+03  0.00000000000E+00 0. -1.
       13    1    4    4    0    0  0.46618320506E+02 -0.55261289322E+02 -0.33397801860E+02  0.79639758120E+02  0.00000000000E+00 0.  1.
        2    1    1    2  502    0  0.17869453083E+02 -0.13558395784E+01  0.12732090155E+04  0.12733351298E+04  0.00000000000E+00 0. -1.
       -3    1    1    2    0  502 -0.15150806937E+03  0.17063413148E+03 -0.42438661232E+02  0.23210286917E+03  0.00000000000E+00 0.  1.
<mgrwt>
<rscale>  2 0.31990667E+03</rscale>
<asrwt>0</asrwt>
<pdfrwt beam="1">  1        2 0.23377064E+00 0.40098112E+03</pdfrwt>
<pdfrwt beam="2">  1       -3 0.51905477E-01 0.40098112E+03</pdfrwt>
<totfact> 0.30286013E+01</totfact>
</mgrwt>
</event>
<event>
10   0  0.3368750E-06  0.1121017E+03  0.7546771E-02  0.1256867E+00
        1   -1    0    0  503    0  0.00000000000E+00  0.00000000000E+00  0.62366231388E+03  0.62366231388E+03  0.00000000000E+00 0. -1.
       -1   -1    0    0    0  501  0.00000000000E+00  0.00000000000E+00 -0.43316818304E+02  0.43316818304E+02  0.00000000000E+00 0.  1.
       23    2    1    2    0    0 -0.27935125847E+02 -0.45208765603E+02  0.89578759714E+02  0.13897925669E+03  0.92014541545E+02 0.  0.
       23    2    1    2    0    0 -0.13049224456E+01  0.68242043322E+02  0.25608366018E+03  0.28041910051E+03  0.91637064652E+02 0.  0.
      -11    1    4    4    0    0  0.20993548557E+02  0.17112451670E+02  0.19816556511E+03  0.20000789054E+03  0.00000000000E+00 0. -1.
       11    1    4    4    0    0 -0.22298471002E+02  0.51129591652E+02  0.57918095071E+02  0.80411209966E+02  0.00000000000E+00 0.  1.
      -13    1    3    3    0    0 -0.92310970100E-01 -0.42681220806E+02  0.10032589793E+03  0.10902743199E+03  0.00000000000E+00 0.  1.
       13    1    3    3    0    0 -0.27842814876E+02 -0.25275447964E+01 -0.10747138220E+02  0.29951824700E+02  0.00000000000E+00 0. -1.
       21    1    1    2  502  501  0.14052640643E+02 -0.31055426725E+02  0.41809631512E+02  0.53944059221E+02  0.00000000000E+00 0. -1.
       21    1    1    2  503  502  0.15187407649E+02  0.80221490047E+01  0.19287344416E+03  0.19363671576E+03  0.00000000000E+00 0. -1.
<mgrwt>
<rscale>  2 0.11202420E+03</rscale>
<asrwt>0</asrwt>
<pdfrwt beam="1">  1        1 0.95948048E-01 0.11210168E+03</pdfrwt>
<pdfrwt beam="2">  1       -1 0.66641259E-02 0.11210168E+03</pdfrwt>
<totfact> 0.36608452E+03</totfact>
</mgrwt>
</event>
<event>
10   0  0.3368750E-06  0.1612010E+03  0.7546771E-02  0.1215635E+00
        3   -1    0    0  503    0  0.00000000000E+00  0.00000000000E+00  0.11900361811E+04  0.11900361811E+04  0.00000000000E+00 0. -1.
       21   -1    0    0  501  502  0.00000000000E+00  0.00000000000E+00 -0.25630811861E+03  0.25630811861E+03  0.00000000000E+00 0.  1.
       23    2    1    2    0    0 -0.18193626788E+02  0.86923496976E+01  0.74497160431E+03  0.74993245565E+03  0.83722349521E+02 0.  0.
       23    2    1    2    0    0  0.23201733656E+02 -0.47424764330E+02  0.38637453049E+03  0.40135764288E+03  0.94948675481E+02 0.  0.
      -11    1    3    3    0    0 -0.23715918031E+02 -0.34777414858E+02  0.33931922424E+03  0.34192023820E+03  0.00000000000E+00 0. -1.
       11    1    3    3    0    0  0.55222912431E+01  0.43469764556E+02  0.40565238007E+03  0.40801221745E+03  0.00000000000E+00 0.  1.
      -13    1    4    4    0    0 -0.31967967184E+02 -0.55407925223E+01  0.65540537952E+02  0.73131480381E+02  0.00000000000E+00 0.  1.
       13    1    4    4    0    0  0.55169700841E+02 -0.41883971808E+02  0.32083399253E+03  0.32822616250E+03  0.00000000000E+00 0. -1.
       21    1    1    2  503  502 -0.33907665422E+02  0.10445029058E+02 -0.23638583903E+03  0.23903366563E+03  0.00000000000E+00 0.  1.
        3    1    1    2  501    0  0.28899558554E+02  0.28287385575E+02  0.38767766765E+02  0.56020535585E+02  0.00000000000E+00 0. -1.
<mgrwt>
<rscale>  2 0.13829967E+03</rscale>
<asrwt>0</asrwt>
<pdfrwt beam="1">  1       21 0.39432018E-01 0.16120101E+03</pdfrwt>
<pdfrwt beam="2">  1        3 0.18308249E+00 0.16120101E+03</pdfrwt>
<totfact> 0.63831974E+01</totfact>
</mgrwt>
</event>
<event>
10   0  0.3368750E-06  0.1113750E+03  0.7546771E-02  0.1259172E+00
        1   -1    0    0  503    0  0.00000000000E+00  0.00000000000E+00  0.82053722077E+03  0.82053722077E+03  0.00000000000E+00 0. -1.
       21   -1    0    0  501  502  0.00000000000E+00  0.00000000000E+00 -0.19218816903E+03  0.19218816903E+03  0.00000000000E+00 0. -1.
       23    2    1    2    0    0 -0.66188302239E+02 -0.14802801329E+02  0.39728211508E+03  0.41165270716E+03  0.83814426403E+02 0.  0.
       23    2    1    2    0    0  0.45419760743E+02 -0.27696919838E+02 -0.16835929839E+03  0.19682126308E+03  0.86969432624E+02 0.  0.
      -11    1    3    3    0    0 -0.63799063124E+02 -0.36504617707E+02  0.36718853281E+03  0.37447339852E+03  0.00000000000E+00 0. -1.
       11    1    3    3    0    0 -0.23892391153E+01  0.21701816378E+02  0.30093582264E+02  0.37179308643E+02  0.00000000000E+00 0.  1.
      -13    1    4    4    0    0  0.12187833337E+02 -0.53516595821E+02 -0.64095730546E+02  0.84385022273E+02  0.00000000000E+00 0. -1.
       13    1    4    4    0    0  0.33231927406E+02  0.25819675983E+02 -0.10426356784E+03  0.11243624080E+03  0.00000000000E+00 0.  1.
       21    1    1    2  503  502 -0.74395211291E+01  0.74332021770E+01  0.24883184597E+02  0.27014289643E+02  0.00000000000E+00 0. -1.
        1    1    1    2  501    0  0.28208062625E+02  0.35066518991E+02  0.37454305046E+03  0.37723712993E+03  0.00000000000E+00 0. -1.
<mgrwt>
<rscale>  2 0.11075849E+03</rscale>
<asrwt>0</asrwt>
<pdfrwt beam="1">  1       21 0.29567411E-01 0.11137505E+03</pdfrwt>
<pdfrwt beam="2">  1        1 0.12623650E+00 0.11137505E+03</pdfrwt>
<totfact> 0.28307634E+03</totfact>
</mgrwt>
</event>
<event>
10   0  0.3368750E-06  0.3550066E+03  0.7546771E-02  0.1068091E+00
        1   -1    0    0  502    0  0.00000000000E+00  0.00000000000E+00  0.18159674807E+04  0.18159674807E+04  0.00000000000E+00 0. -1.
       21   -1    0    0  503  502  0.00000000000E+00  0.00000000000E+00 -0.66488304403E+02  0.66488304403E+02  0.00000000000E+00 0. -1.
       23    2    1    2    0    0 -0.23382564431E+03  0.14156340294E+03  0.10798166502E+04  0.11178679098E+04  0.94392990677E+02 0.  0.
       23    2    1    2    0    0  0.51497706510E+02  0.12987012088E+02  0.29276444996E+03  0.31079794243E+03  0.89797893071E+02 0.  0.
      -11    1    3    3    0    0 -0.96530543127E+02  0.10713483868E+03  0.63058629190E+03  0.64686558956E+03  0.00000000000E+00 0. -1.
       11    1    3    3    0    0 -0.13729510118E+03  0.34428564269E+02  0.44923035827E+03  0.47100232020E+03  0.00000000000E+00 0.  1.
      -13    1    4    4    0    0 -0.13718132611E+02  0.32690957492E+02  0.83224480523E+02  0.90461041462E+02  0.00000000000E+00 0. -1.
       13    1    4    4    0    0  0.65215839121E+02 -0.19703945404E+02  0.20953996944E+03  0.22033690097E+03  0.00000000000E+00 0.  1.
       21    1    1    2  503  501  0.10084464781E+02  0.97371526165E+01  0.14146572916E+02  0.19915674638E+02  0.00000000000E+00 0.  1.
        1    1    1    2  501    0  0.17224347302E+03 -0.16428756765E+03  0.36275150322E+03  0.43387425825E+03  0.00000000000E+00 0. -1.
<mgrwt>
<rscale>  2 0.33697593E+03</rscale>
<asrwt>0</asrwt>
<pdfrwt beam="1">  1       21 0.10228970E-01 0.35500665E+03</pdfrwt>
<pdfrwt beam="2">  1        1 0.27937961E+00 0.35500665E+03</pdfrwt>
<totfact> 0.37285158E+03</totfact>
</mgrwt>
</event>
<event>
10   0  0.3368750E-06  0.9857330E+02  0.7546771E-02  0.1283547E+00
       21   -1    0    0  503  502  0.00000000000E+00  0.00000000000E+00  0.41995995757E+02  0.41995995757E+02  0.00000000000E+00 0.  1.
        1   -1    0    0  502    0  0.00000000000E+00  0.00000000000E+00 -0.60370447179E+03  0.60370447179E+03  0.00000000000E+00 0. -1.
       23    2    1    2    0    0  0.76887223181E+01 -0.14876616888E+02 -0.17686993780E+03  0.19982242897E+03  0.91463643285E+02 0.  0.
       23    2    1    2    0    0  0.25580793832E+02  0.58892325679E+02 -0.23318082712E+03  0.25841878471E+03  0.91018059304E+02 0.  0.
      -11    1    3    3    0    0  0.47779855179E+02 -0.10413044713E+02 -0.12419644119E+03  0.13347697204E+03  0.00000000000E+00 0. -1.
       11    1    3    3    0    0 -0.40091132860E+02 -0.44635721754E+01 -0.52673496612E+02  0.66345456935E+02  0.00000000000E+00 0.  1.
      -13    1    4    4    0    0  0.49390298333E+02  0.69548017267E+02 -0.17852728798E+03  0.19785934607E+03  0.00000000000E+00 0. -1.
       13    1    4    4    0    0 -0.23809504501E+02 -0.10655691588E+02 -0.54653539140E+02  0.60559438640E+02  0.00000000000E+00 0.  1.
       21    1    1    2  503  501 -0.57264500855E+02 -0.58294229457E+02 -0.12081485898E+03  0.14585496356E+03  0.00000000000E+00 0.  1.
        1    1    1    2  501    0  0.23994984705E+02  0.14278520666E+02 -0.30842852149E+02  0.41604290309E+02  0.00000000000E+00 0. -1.
<mgrwt>
<rscale>  2 0.98469807E+02</rscale>
<asrwt>0</asrwt>
<pdfrwt beam="1">  1       21 0.64609224E-02 0.98573297E+02</pdfrwt>
<pdfrwt beam="2">  1        1 0.92877611E-01 0.98573297E+02</pdfrwt>
<totfact> 0.66693915E+04</totfact>
</mgrwt>
</event>
<event>
10   0  0.3368750E-06  0.1010038E+03  0.7546771E-02  0.1278322E+00
       -2   -1    0    0    0  501  0.00000000000E+00  0.00000000000E+00  0.15675401182E+02  0.15675401182E+02  0.00000000000E+00 0.  1.
        2   -1    0    0  502    0  0.00000000000E+00  0.00000000000E+00 -0.16692569028E+04  0.16692569028E+04  0.00000000000E+00 0. -1.
       23    2    1    2    0    0 -0.28677470443E+02 -0.29132946835E+02 -0.92746430079E+03  0.93295047591E+03  0.92387419896E+02 0.  0.
       23    2    1    2    0    0  0.26635697184E+02  0.28989113937E+02 -0.67613000121E+03  0.68358226454E+03  0.92645047197E+02 0.  0.
      -11    1    3    3    0    0  0.30095490983E+02 -0.54570253159E+01 -0.16156659284E+03  0.16443625398E+03  0.00000000000E+00 0.  1.
       11    1    3    3    0    0 -0.58772961426E+02 -0.23675921519E+02 -0.76589770795E+03  0.76851422193E+03  0.00000000000E+00 0. -1.
      -13    1    4    4    0    0  0.36867935859E+02  0.57792548261E+02 -0.40843538223E+03  0.41414814352E+03  0.00000000000E+00 0.  1.
       13    1    4    4    0    0 -0.10232238674E+02 -0.28803434324E+02 -0.26769461898E+03  0.26943412102E+03  0.00000000000E+00 0. -1.
       21    1    1    2  502  503 -0.74671294449E+01 -0.82913472545E+01 -0.53944738282E+02  0.55086652192E+02  0.00000000000E+00 0. -1.
       21    1    1    2  503  501  0.95089027038E+01  0.84351801519E+01  0.39575386984E+01  0.13312911303E+02  0.00000000000E+00 0.  1.
<mgrwt>
<rscale>  2 0.10094472E+03</rscale>
<asrwt>0</asrwt>
<pdfrwt beam="1">  1        2 0.25680875E+00 0.10100384E+03</pdfrwt>
<pdfrwt beam="2">  1       -2 0.24116002E-02 0.10100384E+03</pdfrwt>
<totfact> 0.63449644E+03</totfact>
</mgrwt>
</event>
<event>
10   0  0.3368750E-06  0.2693935E+03  0.7546771E-02  0.1138409E+00
       21   -1    0    0  501  502  0.00000000000E+00  0.00000000000E+00  0.45641596808E+02  0.45641596808E+02  0.00000000000E+00 0.  1.
        1   -1    0    0  503    0  0.00000000000E+00  0.00000000000E+00 -0.13464296968E+04  0.13464296968E+04  0.00000000000E+00 0. -1.
       23    2    1    2    0    0  0.45664337522E+02 -0.42221467368E+02 -0.52349969443E+03  0.53466693256E+03  0.89156686139E+02 0.  0.
       23    2    1    2    0    0 -0.36336807852E+02  0.33644005436E+00 -0.79744124666E+03  0.80335404247E+03  0.90247985451E+02 0.  0.
      -11    1    4    4    0    0  0.78108398083E+01  0.34587400680E+02 -0.18487698113E+03  0.18824663518E+03  0.00000000000E+00 0. -1.
       11    1    4    4    0    0 -0.44147647661E+02 -0.34250960626E+02 -0.61256426553E+03  0.61510740729E+03  0.00000000000E+00 0.  1.
      -13    1    3    3    0    0  0.44431780537E+02  0.15032255841E+02 -0.16180039103E+03  0.16846221646E+03  0.00000000000E+00 0.  1.
       13    1    3    3    0    0  0.12325569860E+01 -0.57253723209E+02 -0.36169930339E+03  0.36620471610E+03  0.00000000000E+00 0. -1.
       21    1    1    2  503  502 -0.86312181409E+01  0.81430598656E+01  0.16184710398E+02  0.20068687083E+02  0.00000000000E+00 0.  1.
        1    1    1    2  501    0 -0.69631152933E+00  0.33741967448E+02  0.39681307066E+01  0.33981631484E+02  0.00000000000E+00 0. -1.
<mgrwt>
<rscale>  2 0.21403579E+03</rscale>
<asrwt>0</asrwt>
<pdfrwt beam="1">  1       21 0.70217841E-02 0.26939345E+03</pdfrwt>
<pdfrwt beam="2">  1        1 0.20714303E+00 0.26939345E+03</pdfrwt>
<totfact> 0.15166394E+04</totfact>
</mgrwt>
</event>
<event>
10   0  0.3368750E-06  0.1275405E+03  0.7546771E-02  0.1235866E+00
        2   -1    0    0  502    0  0.00000000000E+00  0.00000000000E+00  0.61969997021E+03  0.61969997021E+03  0.00000000000E+00 0. -1.
       21   -1    0    0  503  502  0.00000000000E+00  0.00000000000E+00 -0.96442108384E+02  0.96442108384E+02  0.00000000000E+00 0.  1.
       23    2    1    2    0    0 -0.37521314014E+02  0.59377291493E+02  0.47135903904E+03  0.48488876246E+03  0.89466510611E+02 0.  0.
       23    2    1    2    0    0  0.58785904156E+02 -0.71109240159E+02  0.89837625678E+02  0.16568091731E+03  0.10424519563E+03 0.  0.
      -11    1    4    4    0    0 -0.20460459706E+02 -0.46746019408E+02  0.57010537383E+02  0.76511581571E+02  0.00000000000E+00 0. -1.
       11    1    4    4    0    0  0.79246363862E+02 -0.24363220751E+02  0.32827088295E+02  0.89169335742E+02  0.00000000000E+00 0.  1.
      -13    1    3    3    0    0 -0.10429649397E+02  0.13566120928E+02  0.87333582238E+01  0.19211683150E+02  0.00000000000E+00 0.  1.
       13    1    3    3    0    0 -0.27091664617E+02  0.45811170565E+02  0.46262568082E+03  0.46567707931E+03  0.00000000000E+00 0. -1.
       21    1    1    2  503  501 -0.31174045627E+02  0.71489311482E+01 -0.69679593418E+01  0.32733481249E+02  0.00000000000E+00 0.  1.
        2    1    1    2  501    0  0.99094554851E+01  0.45830175173E+01 -0.30970843548E+02  0.32838917578E+02  0.00000000000E+00 0. -1.
<mgrwt>
<rscale>  2 0.12449142E+03</rscale>
<asrwt>0</asrwt>
<pdfrwt beam="1">  1       21 0.14837247E-01 0.12754048E+03</pdfrwt>
<pdfrwt beam="2">  1        2 0.95338457E-01 0.12754048E+03</pdfrwt>
<totfact> 0.24644053E+04</totfact>
</mgrwt>
</event>
<event>
10   0  0.3368750E-06  0.3231338E+03  0.7546771E-02  0.1094186E+00
       21   -1    0    0  503  502  0.00000000000E+00  0.00000000000E+00  0.30345472492E+04  0.30345472492E+04  0.00000000000E+00 0. -1.
        1   -1    0    0  502    0  0.00000000000E+00  0.00000000000E+00 -0.81407948616E+02  0.81407948616E+02  0.00000000000E+00 0. -1.
       23    2    1    2    0    0  0.17285869825E+03  0.14031132458E+01  0.11473902015E+03  0.22669474944E+03  0.91342040657E+02 0.  0.
       23    2    1    2    0    0 -0.25852751192E+01  0.12679703939E+03  0.41222946095E+03  0.44073609501E+03  0.90724881505E+02 0.  0.
      -11    1    3    3    0    0  0.13345573542E+03 -0.36758210729E+02  0.97060305380E+02  0.16906301267E+03  0.00000000000E+00 0. -1.
       11    1    3    3    0    0  0.39402962823E+02  0.38161323975E+02  0.17678714772E+02  0.57631736767E+02  0.00000000000E+00 0.  1.
      -13    1    4    4    0    0 -0.39841802884E+02  0.77900225522E+02  0.30317926242E+03  0.31555265734E+03  0.00000000000E+00 0.  1.
       13    1    4    4    0    0  0.37256527764E+02  0.48896813863E+02  0.10905019854E+03  0.12518343767E+03  0.00000000000E+00 0. -1.
       21    1    1    2  503  501 -0.45652893294E+02 -0.45132494974E+02  0.19096469325E+04  0.19107256568E+04  0.00000000000E+00 0. -1.
        1    1    1    2  501    0 -0.12462052983E+03 -0.83067657657E+02  0.51652388703E+03  0.53779869661E+03  0.00000000000E+00 0. -1.
<mgrwt>
<rscale>  2 0.28276842E+03</rscale>
<asrwt>0</asrwt>
<pdfrwt beam="1">  1       21 0.46685342E+00 0.32313380E+03</pdfrwt>
<pdfrwt beam="2">  1        1 0.12524300E-01 0.32313380E+03</pdfrwt>
<totfact> 0.13885799E+01</totfact>
</mgrwt>
</event>
<event>
10   0  0.3368750E-06  0.4412248E+03  0.7546771E-02  0.1030372E+00
       -3   -1    0    0    0  501  0.00000000000E+00  0.00000000000E+00  0.12395532532E+03  0.12395532532E+03  0.00000000000E+00 0.  1.
       21   -1    0    0  501  502  0.00000000000E+00  0.00000000000E+00 -0.44420523060E+03  0.44420523060E+03  0.00000000000E+00 0. -1.
       23    2    1    2    0    0  0.11488023171E+03 -0.10450665981E+03 -0.68631401902E+00  0.17688931525E+03  0.84677324231E+02 0.  0.
       23    2    1    2    0    0 -0.68170887724E+02  0.27453446904E+02 -0.92869278090E+02  0.14659755057E+03  0.86401257741E+02 0.  0.
      -11    1    3    3    0    0  0.17952738880E+02 -0.31775621986E+02  0.34996539061E+02  0.50564302943E+02  0.00000000000E+00 0.  1.
       11    1    3    3    0    0  0.96927492835E+02 -0.72731037820E+02 -0.35682853080E+02  0.12632501230E+03  0.00000000000E+00 0. -1.
      -13    1    4    4    0    0 -0.43937297129E+01 -0.20619263015E+02  0.35691791152E+01  0.21382186689E+02  0.00000000000E+00 0. -1.
       13    1    4    4    0    0 -0.63777158011E+02  0.48072709918E+02 -0.96438457206E+02  0.12521536388E+03  0.00000000000E+00 0.  1.
       21    1    1    2  503  502 -0.30587975170E+01  0.12220221584E+02 -0.48172766444E+02  0.49792624802E+02  0.00000000000E+00 0. -1.
       -3    1    1    2    0  503 -0.43650546474E+02  0.64832991318E+02 -0.17852154672E+03  0.19488106530E+03  0.00000000000E+00 0.  1.
<mgrwt>
<rscale>  2 0.44122482E+03</rscale>
<asrwt>0</asrwt>
<pdfrwt beam="1">  1       21 0.68339266E-01 0.44122482E+03</pdfrwt>
<pdfrwt beam="2">  1       -3 0.19070050E-01 0.44122482E+03</pdfrwt>
<totfact> 0.23174711E+03</totfact>
</mgrwt>
</event>
<event>
10   0  0.3368750E-06  0.1175377E+03  0.7546771E-02  0.1250185E+00
       -3   -1    0    0    0  501  0.00000000000E+00  0.00000000000E+00  0.59676416560E+03  0.59676416560E+03  0.00000000000E+00 0.  1.
       21   -1    0    0  503  502  0.00000000000E+00  0.00000000000E+00 -0.98614676739E+02  0.98614676739E+02  0.00000000000E+00 0.  1.
       23    2    1    2    0    0 -0.32819287951E+02 -0.31600741331E+02  0.18892475125E+03  0.21162671808E+03  0.83771078865E+02 0.  0.
       23    2    1    2    0    0  0.58902291322E+02  0.93384233278E+02  0.33030233090E+03  0.36035570043E+03  0.92555421701E+02 0.  0.
      -11    1    4    4    0    0  0.26376349255E+02  0.91275965971E+01  0.13640610811E+02  0.31065915132E+02  0.00000000000E+00 0. -1.
       11    1    4    4    0    0  0.32525942067E+02  0.84256636681E+02  0.31666172009E+03  0.32928978530E+03  0.00000000000E+00 0.  1.
      -13    1    3    3    0    0 -0.56789592965E+02 -0.74574861477E+01  0.14614303968E+03  0.15696642958E+03  0.00000000000E+00 0. -1.
       13    1    3    3    0    0  0.23970305014E+02 -0.24143255184E+02  0.42781711570E+02  0.54660288493E+02  0.00000000000E+00 0.  1.
       21    1    1    2  503  501 -0.86928380966E+00  0.18997502146E+02  0.21467095072E+02  0.28679206979E+02  0.00000000000E+00 0.  1.
       -3    1    1    2    0  502 -0.25213719562E+02 -0.80780994093E+02 -0.42544688361E+02  0.94717216854E+02  0.00000000000E+00 0.  1.
<mgrwt>
<rscale>  2 0.11580346E+03</rscale>
<asrwt>0</asrwt>
<pdfrwt beam="1">  1       21 0.15171489E-01 0.11753767E+03</pdfrwt>
<pdfrwt beam="2">  1       -3 0.91809872E-01 0.11753767E+03</pdfrwt>
<totfact> 0.20674018E+03</totfact>
</mgrwt>
</event>
<event>
10   0  0.3368750E-06  0.1419414E+03  0.7546771E-02  0.1229325E+00
       21   -1    0    0  501  502  0.00000000000E+00  0.00000000000E+00  0.21374374994E+03  0.21374374994E+03  0.00000000000E+00 0. -1.
        2   -1    0    0  503    0  0.00000000000E+00  0.00000000000E+00 -0.33598495351E+03  0.33598495351E+03  0.00000000000E+00 0. -1.
       23    2    1    2    0    0 -0.17698043323E+02  0.35496534088E+02 -0.24018680605E+03  0.26014728623E+03  0.91726136210E+02 0.  0.
       23    2    1    2    0    0 -0.79277642394E+01 -0.52063874461E+02  0.14577116789E+03  0.18045704244E+03  0.92423018282E+02 0.  0.
      -11    1    3    3    0    0 -0.83577936895E+00 -0.97221033619E-01  0.84088983705E+01  0.84508905382E+01  0.00000000000E+00 0.  1.
       11    1    3    3    0    0 -0.16862263954E+02  0.35593755121E+02 -0.24859570442E+03  0.25169639569E+03  0.00000000000E+00 0. -1.
      -13    1    4    4    0    0  0.43093835590E+01  0.25238549776E+02  0.20738123720E+02  0.32948823301E+02  0.00000000000E+00 0.  1.
       13    1    4    4    0    0 -0.12237147798E+02 -0.77302424238E+02  0.12503304417E+03  0.14750821914E+03  0.00000000000E+00 0. -1.
       21    1    1    2  503  502  0.51400480166E+01 -0.11028196206E+02 -0.60494920744E+02  0.61706374395E+02  0.00000000000E+00 0. -1.
        2    1    1    2  501    0  0.20485759545E+02  0.27595536579E+02  0.32669355331E+02  0.47418000390E+02  0.00000000000E+00 0. -1.
<mgrwt>
<rscale>  2 0.12874793E+03</rscale>
<asrwt>0</asrwt>
<pdfrwt beam="1">  1       21 0.32883654E-01 0.14194135E+03</pdfrwt>
<pdfrwt beam="2">  1        2 0.51689993E-01 0.14194135E+03</pdfrwt>
<totfact> 0.10805907E+04</totfact>
</mgrwt>
</event>
<event>
10   0  0.3368750E-06  0.1285574E+03  0.7546771E-02  0.1242322E+00
       21   -1    0    0  501  502  0.00000000000E+00  0.00000000000E+00  0.14590835852E+03  0.14590835852E+03  0.00000000000E+00 0. -1.
        1   -1    0    0  503    0  0.00000000000E+00  0.00000000000E+00 -0.96779338561E+03  0.96779338561E+03  0.00000000000E+00 0. -1.
       23    2    1    2    0    0 -0.10697901814E+01 -0.73141645927E+02 -0.28158826982E+03  0.30482582703E+03  0.90972448068E+02 0.  0.
       23    2    1    2    0    0  0.18429399579E+02 -0.36440216912E+02 -0.24007974763E+03  0.26022072983E+03  0.91700658856E+02 0.  0.
      -11    1    3    3    0    0 -0.37428540387E+02 -0.39052345441E+02 -0.76012111488E+02  0.93294278564E+02  0.00000000000E+00 0.  1.
       11    1    3    3    0    0  0.36358750205E+02 -0.34089300486E+02 -0.20557615833E+03  0.21153154847E+03  0.00000000000E+00 0. -1.
      -13    1    4    4    0    0 -0.21159771253E+02  0.18540261704E+02 -0.11017245470E+03  0.11370772620E+03  0.00000000000E+00 0. -1.
       13    1    4    4    0    0  0.39589170831E+02 -0.54980478616E+02 -0.12990729293E+03  0.14651300363E+03  0.00000000000E+00 0.  1.
       21    1    1    2  503  502 -0.19340517998E+02  0.98606173218E+02 -0.41822203110E+03  0.43012428475E+03  0.00000000000E+00 0.  1.
        1    1    1    2  501    0  0.19809086011E+01  0.10975689621E+02  0.11800502146E+03  0.11853090252E+03  0.00000000000E+00 0. -1.
<mgrwt>
<rscale>  2 0.12047092E+03</rscale>
<asrwt>0</asrwt>
<pdfrwt beam="1">  1       21 0.22447440E-01 0.12855743E+03</pdfrwt>
<pdfrwt beam="2">  1        1 0.14889129E+00 0.12855743E+03</pdfrwt>
<totfact> 0.36373510E+03</totfact>
</mgrwt>
</event>
<event>
10   0  0.3368750E-06  0.1134218E+03  0.7546771E-02  0.1257213E+00
       -2   -1    0    0    0  501  0.00000000000E+00  0.00000000000E+00  0.48688646801E+02  0.48688646801E+02  0.00000000000E+00 0.  1.
        2   -1    0    0  503    0  0.00000000000E+00  0.00000000000E+00 -0.60032447886E+03  0.60032447886E+03  0.00000000000E+00 0. -1.
       23    2    1    2    0    0  0.24248125201E+02  0.62058435641E+02 -0.27100993320E+03  0.29354949653E+03  0.91025831563E+02 0.  0.
       23    2    1    2    0    0  0.44454577098E+02 -0.46431760884E+02 -0.82722265901E+02  0.14364446959E+03  0.98278392966E+02 0.  0.
      -11    1    4    4    0    0 -0.27839171348E+02 -0.30978526406E+02 -0.42406611599E+02  0.59439122360E+02  0.00000000000E+00 0.  1.
       11    1    4    4    0    0  0.72293748446E+02 -0.15453234478E+02 -0.40315654302E+02  0.84205347229E+02  0.00000000000E+00 0. -1.
      -13    1    3    3    0    0  0.53507396388E+02  0.22889797855E+02 -0.19209222737E+03  0.20071474318E+03  0.00000000000E+00 0. -1.
       13    1    3    3    0    0 -0.29259271187E+02  0.39168637786E+02 -0.78917705822E+02  0.92834753345E+02  0.00000000000E+00 0.  1.
       21    1    1    2  502  501 -0.57662469159E+02 -0.22661688061E+02 -0.17150920345E+03  0.18235657192E+03  0.00000000000E+00 0.  1.
       21    1    1    2  503  502 -0.11040233140E+02  0.70350133051E+01 -0.26394429516E+02  0.29462587623E+02  0.00000000000E+00 0. -1.
<mgrwt>
<rscale>  2 0.11183293E+03</rscale>
<asrwt>0</asrwt>
<pdfrwt beam="1">  1        2 0.92357612E-01 0.11342178E+03</pdfrwt>
<pdfrwt beam="2">  1       -2 0.74905610E-02 0.11342178E+03</pdfrwt>
<totfact> 0.50629390E+03</totfact>
</mgrwt>
</event>
<event>
10   0  0.3368750E-06  0.1616687E+03  0.7546771E-02  0.1187450E+00
       -1   -1    0    0    0  501  0.00000000000E+00  0.00000000000E+00  0.17345429211E+03  0.17345429211E+03  0.00000000000E+00 0.  1.
        1   -1    0    0  503    0  0.00000000000E+00  0.00000000000E+00 -0.30011056833E+03  0.30011056833E+03  0.00000000000E+00 0. -1.
       23    2    1    2    0    0 -0.10161112056E+03  0.87743095576E+02 -0.21742351803E+03  0.27163623104E+03  0.92138944972E+02 0.  0.
       23    2    1    2    0    0  0.10959882496E+03 -0.65964769682E+02  0.75671916418E+02  0.17281312984E+03  0.88175311957E+02 0.  0.
      -11    1    4    4    0    0  0.12101289853E+02 -0.56066297387E+02  0.28807315711E+02  0.64185141250E+02  0.00000000000E+00 0.  1.
       11    1    4    4    0    0  0.97497535106E+02 -0.98984722956E+01  0.46864600707E+02  0.10862798859E+03  0.00000000000E+00 0. -1.
      -13    1    3    3    0    0 -0.56804134717E+02  0.10115884751E+03 -0.15766008158E+03  0.19574606886E+03  0.00000000000E+00 0. -1.
       13    1    3    3    0    0 -0.44806985840E+02 -0.13415751932E+02 -0.59763436452E+02  0.75890162185E+02  0.00000000000E+00 0.  1.
       21    1    1    2  502  501 -0.11781279107E+01 -0.11800648314E+02  0.11481501413E+02  0.16506609607E+02  0.00000000000E+00 0. -1.
       21    1    1    2  503  502 -0.68095764929E+01 -0.99776775793E+01  0.36138239774E+01  0.12608889944E+02  0.00000000000E+00 0. -1.
<mgrwt>
<rscale>  2 0.16110937E+03</rscale>
<asrwt>0</asrwt>
<pdfrwt beam="1">  1        1 0.46170857E-01 0.16166869E+03</pdfrwt>
<pdfrwt beam="2">  1       -1 0.26685276E-01 0.16166869E+03</pdfrwt>
<totfact> 0.10864316E+03</totfact>
</mgrwt>
</event>
<event>
10   0  0.3368750E-06  0.9612307E+02  0.7546771E-02  0.1288810E+00
       21   -1    0    0  501  502  0.00000000000E+00  0.00000000000E+00  0.21974796900E+03  0.21974796900E+03  0.00000000000E+00 0.  1.
       -1   -1    0    0    0  501  0.00000000000E+00  0.00000000000E+00 -0.61293681734E+03  0.61293681734E+03  0.00000000000E+00 0.  1.
       23    2    1    2    0    0 -0.24277589451E+02 -0.46976203383E+01 -0.53856856699E+03  0.54704348656E+03  0.92676889568E+02 0.  0.
       23    2    1    2    0    0  0.37484734592E+02 -0.36160901313E+02 -0.25183436866E+02  0.10902357731E+03  0.92407893632E+02 0.  0.
      -11    1    4    4    0    0 -0.17852776748E+02 -0.26136592241E+02 -0.39863239510E+02  0.50901089927E+02  0.00000000000E+00 0.  1.
       11    1    4    4    0    0  0.55337511340E+02 -0.10024309072E+02  0.14679802644E+02  0.58122487381E+02  0.00000000000E+00 0. -1.
      -13    1    3    3    0    0 -0.30047733677E+02  0.12327393729E+02 -0.52064990588E+03  0.52166191679E+03  0.00000000000E+00 0.  1.
       13    1    3    3    0    0  0.57701442264E+01 -0.17025014067E+02 -0.17918661106E+02  0.25381569775E+02  0.00000000000E+00 0. -1.
       21    1    1    2  503  502 -0.96922998780E+01  0.14104791060E+02  0.91225064529E+02  0.92816475941E+02  0.00000000000E+00 0.  1.
       -1    1    1    2    0  503 -0.35148452631E+01  0.26753730591E+02  0.79338090986E+02  0.83801246525E+02  0.00000000000E+00 0.  1.
<mgrwt>
<rscale>  2 0.96058176E+02</rscale>
<asrwt>0</asrwt>
<pdfrwt beam="1">  1       21 0.33807380E-01 0.96123073E+02</pdfrwt>
<pdfrwt beam="2">  1       -1 0.94297972E-01 0.96123073E+02</pdfrwt>
<totfact> 0.95292088E+02</totfact>
</mgrwt>
</event>
<event>
10   0  0.3368750E-06  0.1053001E+03  0.7546771E-02  0.1269652E+00
        1   -1    0    0  503    0  0.00000000000E+00  0.00000000000E+00  0.11416622669E+04  0.11416622669E+04  0.00000000000E+00 0. -1.
       21   -1    0    0  501  502  0.00000000000E+00  0.00000000000E+00 -0.40872848110E+02  0.40872848110E+02  0.00000000000E+00 0.  1.
       23    2    1    2    0    0 -0.12176089127E+02 -0.53254399270E+02  0.71889695621E+03  0.72666280169E+03  0.90783839618E+02 0.  0.
       23    2    1    2    0    0  0.17614013720E+02  0.48272838068E+02  0.39310309638E+03  0.40664437366E+03  0.90493546013E+02 0.  0.
      -11    1    4    4    0    0 -0.13177686810E+02 -0.17772697634E+02  0.18153736996E+03  0.18288066301E+03  0.00000000000E+00 0.  1.
       11    1    4    4    0    0  0.30791700530E+02  0.66045535702E+02  0.21156572642E+03  0.22376371065E+03  0.00000000000E+00 0. -1.
      -13    1    3    3    0    0  0.32499090150E+02 -0.32184607690E+02  0.50816869485E+03  0.51022295348E+03  0.00000000000E+00 0. -1.
       13    1    3    3    0    0 -0.44675179277E+02 -0.21069791580E+02  0.21072826135E+03  0.21643984821E+03  0.00000000000E+00 0.  1.
       21    1    1    2  503  502 -0.79797908490E+01 -0.11656373609E+02  0.13361478783E+02  0.19444207954E+02  0.00000000000E+00 0.  1.
        1    1    1    2  501    0  0.25418662560E+01  0.16637934810E+02 -0.24572112568E+02  0.29783731715E+02  0.00000000000E+00 0. -1.
<mgrwt>
<rscale>  2 0.10523746E+03</rscale>
<asrwt>0</asrwt>
<pdfrwt beam="1">  1       21 0.62881305E-02 0.10530006E+03</pdfrwt>
<pdfrwt beam="2">  1        1 0.17564035E+00 0.10530006E+03</pdfrwt>
<totfact> 0.26255531E+04</totfact>
</mgrwt>
</event>
<event>
10   0  0.3368750E-06  0.9757739E+02  0.7546771E-02  0.1287667E+00
       21   -1    0    0  501  502  0.00000000000E+00  0.00000000000E+00  0.26357619507E+03  0.26357619507E+03  0.00000000000E+00 0.  1.
       -1   -1    0    0    0  501  0.00000000000E+00  0.00000000000E+00 -0.16989964498E+03  0.16989964498E+03  0.00000000000E+00 0.  1.
       23    2    1    2    0    0 -0.18383555886E+02  0.16238631329E+02  0.19009570903E+02  0.95434247211E+02  0.90247900143E+02 0.  0.
       23    2    1    2    0    0 -0.17124201744E+00 -0.27245493385E+02 -0.11175274462E+03  0.14876272067E+03  0.94336233213E+02 0.  0.
      -11    1    3    3    0    0  0.32047579218E+02 -0.12048832740E+02 -0.98541433494E+00  0.34251901342E+02  0.00000000000E+00 0. -1.
       11    1    3    3    0    0 -0.50431135104E+02  0.28287464069E+02  0.19994985237E+02  0.61182345869E+02  0.00000000000E+00 0.  1.
      -13    1    4    4    0    0 -0.42502095750E+02 -0.15965816705E+02 -0.87775291338E+02  0.98822250610E+02  0.00000000000E+00 0.  1.
       13    1    4    4    0    0  0.42330853733E+02 -0.11279676681E+02 -0.23977453285E+02  0.49940470060E+02  0.00000000000E+00 0. -1.
       21    1    1    2  503  502  0.57770511399E+01  0.87506105590E+01  0.22247519574E+02  0.24594707403E+02  0.00000000000E+00 0. -1.
       -1    1    1    2    0  503  0.12777746764E+02  0.22562514974E+01  0.16417220423E+03  0.16468416477E+03  0.00000000000E+00 0.  1.
<mgrwt>
<rscale>  2 0.96575387E+02</rscale>
<asrwt>0</asrwt>
<pdfrwt beam="1">  1       21 0.40550184E-01 0.97577391E+02</pdfrwt>
<pdfrwt beam="2">  1       -1 0.26138407E-01 0.97577391E+02</pdfrwt>
<totfact> 0.70015648E+03</totfact>
</mgrwt>
</event>
<event>
10   0  0.3368750E-06  0.2544626E+03  0.7546771E-02  0.1110574E+00
       21   -1    0    0  501  502  0.00000000000E+00  0.00000000000E+00  0.43520327307E+03  0.43520327307E+03  0.00000000000E+00 0.  1.
        2   -1    0    0  503    0  0.00000000000E+00  0.00000000000E+00 -0.29987713345E+03  0.29987713345E+03  0.00000000000E+00 0. -1.
       23    2    1    2    0    0  0.45885533606E+01  0.18408166318E+03  0.22659619301E+02  0.20664887735E+03  0.91012013596E+02 0.  0.
       23    2    1    2    0    0 -0.47901363793E+02 -0.32193130457E+03  0.27197095857E+02  0.33932949953E+03  0.92035437263E+02 0.  0.
      -11    1    4    4    0    0 -0.66210438145E+02 -0.28171603255E+03  0.42650807237E+02  0.29251809597E+03  0.00000000000E+00 0.  1.
       11    1    4    4    0    0  0.18309074352E+02 -0.40215272020E+02 -0.15453711380E+02  0.46811403553E+02  0.00000000000E+00 0. -1.
      -13    1    3    3    0    0 -0.15778930813E+01  0.12209916751E+03 -0.29252345466E+02  0.12556431089E+03  0.00000000000E+00 0.  1.
       13    1    3    3    0    0  0.61664464419E+01  0.61982495670E+02  0.51911964767E+02  0.81084566455E+02  0.00000000000E+00 0. -1.
       21    1    1    2  503  502 -0.85692249748E+01 -0.52630658650E+01 -0.58017655318E+01  0.11609994068E+02  0.00000000000E+00 0. -1.
        2    1    1    2  501    0  0.51882035407E+02  0.14311270725E+03  0.91271189986E+02  0.17749203558E+03  0.00000000000E+00 0. -1.
<mgrwt>
<rscale>  2 0.25437043E+03</rscale>
<asrwt>0</asrwt>
<pdfrwt beam="1">  1       21 0.66954350E-01 0.25446258E+03</pdfrwt>
<pdfrwt beam="2">  1        2 0.46134944E-01 0.25446258E+03</pdfrwt>
<totfact> 0.27125055E+03</totfact>
</mgrwt>
</event>
<event>
10   0  0.3368750E-06  0.1064863E+03  0.7546771E-02  0.1270646E+00
        1   -1    0    0  503    0  0.00000000000E+00  0.00000000000E+00  0.88492248468E+02  0.88492248468E+02  0.00000000000E+00 0. -1.
       21   -1    0    0  501  502  0.00000000000E+00  0.00000000000E+00 -0.32001672867E+03  0.32001672867E+03  0.00000000000E+00 0. -1.
       23    2    1    2    0    0 -0.53326458964E+02 -0.19582264483E+01 -0.13067074977E+03  0.16432504146E+03  0.84144688064E+02 0.  0.
       23    2    1    2    0    0  0.49225834953E+02  0.39563819568E+02  0.59865103466E+01  0.11187001843E+03  0.92144365377E+02 0.  0.
      -11    1    3    3    0    0  0.41508897388E+01 -0.32250544091E+02 -0.28460016030E+02  0.43212266687E+02  0.00000000000E+00 0.  1.
       11    1    3    3    0    0 -0.57477348702E+02  0.30292317642E+02 -0.10221073374E+03  0.12111277477E+03  0.00000000000E+00 0. -1.
      -13    1    4    4    0    0  0.19443489245E+01  0.11346520962E+02 -0.39065411846E+02  0.40726286762E+02  0.00000000000E+00 0.  1.
       13    1    4    4    0    0  0.47281486029E+02  0.28217298606E+02  0.45051922193E+02  0.71143731664E+02  0.00000000000E+00 0. -1.
       21    1    1    2  503  502 -0.54206181705E+01 -0.11004371032E+02  0.76046807070E+01  0.14432964069E+02  0.00000000000E+00 0. -1.
        1    1    1    2  501    0  0.95212421809E+01 -0.26601222088E+02 -0.11444492149E+03  0.11788095318E+03  0.00000000000E+00 0. -1.
<mgrwt>
<rscale>  2 0.10473314E+03</rscale>
<asrwt>0</asrwt>
<pdfrwt beam="1">  1       21 0.49233343E-01 0.10648635E+03</pdfrwt>
<pdfrwt beam="2">  1        1 0.13614192E-01 0.10648635E+03</pdfrwt>
<totfact> 0.17918129E+04</totfact>
</mgrwt>
</event>
<event>
10   0  0.3368750E-06  0.1128209E+03  0.7546771E-02  0.1262312E+00
       -2   -1    0    0    0  501  0.00000000000E+00  0.00000000000E+00  0.25703797053E+02  0.25703797053E+02  0.00000000000E+00 0.  1.
        2   -1    0    0  503    0  0.00000000000E+00  0.00000000000E+00 -0.65218042762E+03  0.65218042762E+03  0.00000000000E+00 0. -1.
       23    2    1    2    0    0  0.17833934680E+02 -0.33453830784E+02 -0.28539569288E+03  0.30689764235E+03  0.10629324224E+03 0.  0.
       23    2    1    2    0    0 -0.34630853291E+02  0.20728670981E+02 -0.25833756962E+03  0.27684809714E+03  0.90981290466E+02 0.  0.
      -11    1    3    3    0    0 -0.26154551323E+02 -0.15929690242E+02 -0.23778754972E+03  0.23975140122E+03  0.00000000000E+00 0. -1.
       11    1    3    3    0    0  0.43988486003E+02 -0.17524140542E+02 -0.47608143165E+02  0.67146241132E+02  0.00000000000E+00 0.  1.
      -13    1    4    4    0    0 -0.24542645459E+02 -0.31688126395E+02 -0.65782085738E+02  0.77030913305E+02  0.00000000000E+00 0. -1.
       13    1    4    4    0    0 -0.10088207832E+02  0.52416797376E+02 -0.19255548388E+03  0.19981718384E+03  0.00000000000E+00 0.  1.
       21    1    1    2  502  501  0.10594716376E+02  0.17369047012E+01 -0.30541259326E+00  0.10740490206E+02  0.00000000000E+00 0. -1.
       21    1    1    2  503  502  0.62022022357E+01  0.10988255102E+02 -0.82437955469E+02  0.83397994968E+02  0.00000000000E+00 0.  1.
<mgrwt>
<rscale>  2 0.10906431E+03</rscale>
<asrwt>0</asrwt>
<pdfrwt beam="1">  1        2 0.10033545E+00 0.11282087E+03</pdfrwt>
<pdfrwt beam="2">  1       -2 0.39544303E-02 0.11282087E+03</pdfrwt>
<totfact> 0.12020299E+04</totfact>
</mgrwt>
</event>
<event>
10   0  0.3368750E-06  0.1313653E+03  0.7546771E-02  0.1226029E+00
       21   -1    0    0  501  502  0.00000000000E+00  0.00000000000E+00  0.10067995177E+03  0.10067995177E+03  0.00000000000E+00 0.  1.
        3   -1    0    0  503    0  0.00000000000E+00  0.00000000000E+00 -0.29525795563E+03  0.29525795563E+03  0.00000000000E+00 0. -1.
       23    2    1    2    0    0 -0.70677726038E+02 -0.76638841721E+02 -0.30850201221E+01  0.13627513977E+03  0.87707145379E+02 0.  0.
       23    2    1    2    0    0  0.52640354654E+02  0.79938782259E+02 -0.16310384700E+03  0.20945525029E+03  0.90041219010E+02 0.  0.
      -11    1    3    3    0    0 -0.86497853240E+02 -0.45652869293E+02 -0.16113664990E+02  0.99124736011E+02  0.00000000000E+00 0.  1.
       11    1    3    3    0    0  0.15820127202E+02 -0.30985972429E+02  0.13028644868E+02  0.37150403754E+02  0.00000000000E+00 0. -1.
      -13    1    4    4    0    0  0.56013293701E+00 -0.16978568326E+02 -0.67719672321E+01  0.18287839443E+02  0.00000000000E+00 0.  1.
       13    1    4    4    0    0  0.52080221717E+02  0.96917350585E+02 -0.15633187977E+03  0.19116741085E+03  0.00000000000E+00 0. -1.
       21    1    1    2  503  502  0.94177440416E+01 -0.12968623505E+02 -0.32814435327E+02  0.36519395727E+02  0.00000000000E+00 0. -1.
        3    1    1    2  501    0  0.86196273423E+01  0.96686829673E+01  0.44252985904E+01  0.13688121619E+02  0.00000000000E+00 0. -1.
<mgrwt>
<rscale>  2 0.13096628E+03</rscale>
<asrwt>0</asrwt>
<pdfrwt beam="1">  1       21 0.15489223E-01 0.13136527E+03</pdfrwt>
<pdfrwt beam="2">  1        3 0.45424301E-01 0.13136527E+03</pdfrwt>
<totfact> 0.86852360E+03</totfact>
</mgrwt>
</event>
<event>
10   0  0.3368750E-06  0.3336454E+03  0.7546771E-02  0.1069535E+00
        1   -1    0    0  502    0  0.00000000000E+00  0.00000000000E+00  0.54585508087E+03  0.54585508087E+03  0.00000000000E+00 0. -1.
       21   -1    0    0  503  502  0.00000000000E+00  0.00000000000E+00 -0.20142191779E+03  0.20142191779E+03  0.00000000000E+00 0. -1.
       23    2    1    2    0    0 -0.34943136274E+02  0.27338385860E+02  0.80433840842E+02  0.12916515364E+03  0.90805418609E+02 0.  0.
       23    2    1    2    0    0  0.32828629161E+02 -0.28352879124E+02  0.43150316136E+03  0.44320564981E+03  0.91403857205E+02 0.  0.
      -11    1    3    3    0    0 -0.34214613843E+02 -0.22554375863E+02  0.88794577406E+01  0.41930709996E+02  0.00000000000E+00 0.  1.
       11    1    3    3    0    0 -0.72852243058E+00  0.49892761723E+02  0.71554383102E+02  0.87234443646E+02  0.00000000000E+00 0. -1.
      -13    1    4    4    0    0  0.49479985494E+01 -0.49566355752E+02  0.12276306067E+03  0.13248424577E+03  0.00000000000E+00 0.  1.
       13    1    4    4    0    0  0.27880630611E+02  0.21213476628E+02  0.30874010069E+03  0.31072140404E+03  0.00000000000E+00 0. -1.
       21    1    1    2  503  501 -0.34076028295E+01  0.16458443560E+02 -0.14992453267E+03  0.15086370543E+03  0.00000000000E+00 0. -1.
        1    1    1    2  501    0  0.55221099422E+01 -0.15443950296E+02 -0.17579306458E+02  0.24042489773E+02  0.00000000000E+00 0. -1.
<mgrwt>
<rscale>  2 0.33364545E+03</rscale>
<asrwt>0</asrwt>
<pdfrwt beam="1">  1       21 0.30987987E-01 0.33364545E+03</pdfrwt>
<pdfrwt beam="2">  1        1 0.83977705E-01 0.33364545E+03</pdfrwt>
<totfact> 0.42758995E+03</totfact>
</mgrwt>
</event>
<event>
10   0  0.3368750E-06  0.1062892E+03  0.7546771E-02  0.1268187E+00
       -2   -1    0    0    0  501  0.00000000000E+00  0.00000000000E+00  0.19607664345E+03  0.19607664345E+03  0.00000000000E+00 0.  1.
        2   -1    0    0  503    0  0.00000000000E+00  0.00000000000E+00 -0.12897151177E+04  0.12897151177E+04  0.00000000000E+00 0. -1.
       23    2    1    2    0    0 -0.10851394292E+02 -0.41273221424E+02  0.10875590444E+03  0.14758605905E+03  0.90180743559E+02 0.  0.
       23    2    1    2    0    0  0.20689563980E+02  0.86739791555E+02  0.67134257081E+01  0.12799946252E+03  0.91580253463E+02 0.  0.
      -11    1    3    3    0    0  0.37899832138E+02 -0.15860858166E+02  0.66821452845E+02  0.78441511065E+02  0.00000000000E+00 0.  1.
       11    1    3    3    0    0 -0.48751226430E+02 -0.25412363258E+02  0.41934451599E+02  0.69144547982E+02  0.00000000000E+00 0. -1.
      -13    1    4    4    0    0  0.26216416544E+02 -0.12064330643E+02  0.10154814232E+01  0.28876976517E+02  0.00000000000E+00 0. -1.
       13    1    4    4    0    0 -0.55268525636E+01  0.98804122198E+02  0.56979442849E+01  0.99122486004E+02  0.00000000000E+00 0.  1.
       21    1    1    2  502  501 -0.37474595348E+00 -0.21252034886E+02 -0.31273114497E+03  0.31345264149E+03  0.00000000000E+00 0.  1.
       21    1    1    2  503  502 -0.94634237348E+01 -0.24214535245E+02 -0.89637665940E+03  0.89675359805E+03  0.00000000000E+00 0. -1.
<mgrwt>
<rscale>  2 0.10598707E+03</rscale>
<asrwt>0</asrwt>
<pdfrwt beam="1">  1        2 0.19841771E+00 0.10628922E+03</pdfrwt>
<pdfrwt beam="2">  1       -2 0.30165637E-01 0.10628922E+03</pdfrwt>
<totfact> 0.19047260E+02</totfact>
</mgrwt>
</event>
<event>
10   0  0.3368750E-06  0.3062591E+03  0.7546771E-02  0.1092971E+00
       21   -1    0    0  503  502  0.00000000000E+00  0.00000000000E+00  0.89177040717E+02  0.89177040717E+02  0.00000000000E+00 0.  1.
        2   -1    0    0  502    0  0.00000000000E+00  0.00000000000E+00 -0.92377105042E+03  0.92377105042E+03  0.00000000000E+00 0. -1.
       23    2    1    2    0    0 -0.10414073744E+02 -0.20657781620E+03 -0.33061666526E+03  0.40069574286E+03  0.92015498267E+02 0.  0.
       23    2    1    2    0    0 -0.21775397026E+02  0.16659236901E+01 -0.13392210966E+03  0.16246476851E+03  0.89346104199E+02 0.  0.
      -11    1    3    3    0    0 -0.20370352366E+02 -0.13763813629E+03 -0.13840712637E+03  0.19625427498E+03  0.00000000000E+00 0.  1.
       11    1    3    3    0    0  0.99562786225E+01 -0.68939679908E+02 -0.19220953889E+03  0.20444146788E+03  0.00000000000E+00 0. -1.
      -13    1    4    4    0    0 -0.52093289261E+02  0.19358768971E+02 -0.94919751668E+02  0.10999196325E+03  0.00000000000E+00 0.  1.
       13    1    4    4    0    0  0.30317892236E+02 -0.17692845281E+02 -0.39002357988E+02  0.52472805265E+02  0.00000000000E+00 0. -1.
       21    1    1    2  503  501 -0.10317799308E+02 -0.76826500417E+01  0.71491020590E+01  0.14716988635E+02  0.00000000000E+00 0. -1.
        2    1    1    2  501    0  0.42507270077E+02  0.21259454255E+03 -0.37720433685E+03  0.43507059113E+03  0.00000000000E+00 0. -1.
<mgrwt>
<rscale>  2 0.28503397E+03</rscale>
<asrwt>0</asrwt>
<pdfrwt beam="1">  1       21 0.13719545E-01 0.30625908E+03</pdfrwt>
<pdfrwt beam="2">  1        2 0.14211862E+00 0.30625908E+03</pdfrwt>
<totfact> 0.16778672E+04</totfact>
</mgrwt>
</event>
<event>
10   0  0.3368750E-06  0.4990657E+03  0.7546771E-02  0.1014023E+00
        2   -1    0    0  503    0  0.00000000000E+00  0.00000000000E+00  0.50711981861E+03  0.50711981861E+03  0.00000000000E+00 0.  1.
       21   -1    0    0  501  502  0.00000000000E+00  0.00000000000E+00 -0.13826293050E+03  0.13826293050E+03  0.00000000000E+00 0. -1.
       23    2    1    2    0    0 -0.23441703356E+02 -0.20360816459E+03  0.12417670555E+03  0.25636700088E+03  0.91095481759E+02 0.  0.
       23    2    1    2    0    0  0.51271657818E+02  0.20021205527E+03  0.17388087314E+03  0.28704812824E+03  0.97202983051E+02 0.  0.
      -11    1    3    3    0    0 -0.87775326076E+01 -0.20856958961E+03  0.11419277116E+03  0.23794601861E+03  0.00000000000E+00 0. -1.
       11    1    3    3    0    0 -0.14664170749E+02  0.49614250181E+01  0.99839343938E+01  0.18420982274E+02  0.00000000000E+00 0.  1.
      -13    1    4    4    0    0 -0.21639032912E+02  0.84451132953E+01  0.17340513379E+02  0.28987257342E+02  0.00000000000E+00 0.  1.
       13    1    4    4    0    0  0.72910690730E+02  0.19176694197E+03  0.15654035976E+03  0.25806087090E+03  0.00000000000E+00 0. -1.
       21    1    1    2  503  502 -0.12481406942E+02 -0.36793847447E+00 -0.12211773771E+02  0.17465632442E+02  0.00000000000E+00 0. -1.
        2    1    1    2  501    0 -0.15348547519E+02  0.37640477948E+01  0.83011083184E+02  0.84501987540E+02  0.00000000000E+00 0.  1.
<mgrwt>
<rscale>  2 0.49906571E+03</rscale>
<asrwt>0</asrwt>
<pdfrwt beam="1">  1       21 0.21271220E-01 0.49906571E+03</pdfrwt>
<pdfrwt beam="2">  1        2 0.78018434E-01 0.49906571E+03</pdfrwt>
<totfact> 0.15164220E+04</totfact>
</mgrwt>
</event>
<event>
10   0  0.3368750E-06  0.9679912E+02  0.7546771E-02  0.1292400E+00
        1   -1    0    0  503    0  0.00000000000E+00  0.00000000000E+00  0.58571548525E+03  0.58571548525E+03  0.00000000000E+00 0. -1.
       21   -1    0    0  501  502  0.00000000000E+00  0.00000000000E+00 -0.37029259073E+02  0.37029259073E+02  0.00000000000E+00 0. -1.
       23    2    1    2    0    0  0.29337798335E+02 -0.11913947333E+02  0.35866600504E+03  0.37123610984E+03  0.90400760666E+02 0.  0.
       23    2    1    2    0    0 -0.30169311941E+02 -0.14780473305E+02  0.14648726535E+03  0.17056731113E+03  0.80660020728E+02 0.  0.
      -11    1    3    3    0    0 -0.85267820438E+01  0.44275909831E+01 -0.58515479786E+00  0.96255898559E+01  0.00000000000E+00 0.  1.
       11    1    3    3    0    0  0.37864580378E+02 -0.16341538316E+02  0.35925115983E+03  0.36161051998E+03  0.00000000000E+00 0. -1.
      -13    1    4    4    0    0 -0.31422556872E+02 -0.87551090215E+01  0.10251244007E+02  0.34192353210E+02  0.00000000000E+00 0.  1.
       13    1    4    4    0    0  0.12532449310E+01 -0.60253642836E+01  0.13623602134E+03  0.13637495792E+03  0.00000000000E+00 0. -1.
       21    1    1    2  503  502  0.16598536929E+02  0.29748767145E+01  0.49104806022E+02  0.51919584880E+02  0.00000000000E+00 0. -1.
        1    1    1    2  501    0 -0.15767023323E+02  0.23719543923E+02 -0.55718502359E+01  0.29021738463E+02  0.00000000000E+00 0. -1.
<mgrwt>
<rscale>  2 0.94458657E+02</rscale>
<asrwt>0</asrwt>
<pdfrwt beam="1">  1       21 0.56968091E-02 0.96799122E+02</pdfrwt>
<pdfrwt beam="2">  1        1 0.90110075E-01 0.96799122E+02</pdfrwt>
<totfact> 0.85821977E+04</totfact>
</mgrwt>
</event>
<event>
10   0  0.3368750E-06  0.3711071E+03  0.7546771E-02  0.1087808E+00
        2   -1    0    0  503    0  0.00000000000E+00  0.00000000000E+00  0.33369171460E+04  0.33369171460E+04  0.00000000000E+00 0. -1.
       21   -1    0    0  501  502  0.00000000000E+00  0.00000000000E+00 -0.12665159500E+03  0.12665159500E+03  0.00000000000E+00 0.  1.
       23    2    1    2    0    0 -0.55564138318E+02 -0.10046253741E+03  0.24880602625E+04  0.24924672999E+04  0.93644416413E+02 0.  0.
       23    2    1    2    0    0  0.16420302211E+03  0.33555018820E+01  0.29422179395E+03  0.34910758693E+03  0.91300336015E+02 0.  0.
      -11    1    3    3    0    0 -0.40988394457E+02 -0.10363529673E+03  0.14418385736E+04  0.14461392726E+04  0.00000000000E+00 0. -1.
       11    1    3    3    0    0 -0.14575743862E+02  0.31727593220E+01  0.10462216888E+04  0.10463280274E+04  0.00000000000E+00 0.  1.
      -13    1    4    4    0    0  0.16990884382E+03  0.89728707658E+01  0.23939763037E+03  0.29370180974E+03  0.00000000000E+00 0.  1.
       13    1    4    4    0    0 -0.57058217034E+01 -0.56173688838E+01  0.54824163580E+02  0.55405777196E+02  0.00000000000E+00 0. -1.
       21    1    1    2  503  502  0.20695171597E+02 -0.75118010151E+01 -0.82344955072E+02  0.85237368024E+02  0.00000000000E+00 0.  1.
        2    1    1    2  501    0 -0.12933405539E+03  0.10461883654E+03  0.51032844967E+03  0.53675648611E+03  0.00000000000E+00 0. -1.
<mgrwt>
<rscale>  2 0.29492038E+03</rscale>
<asrwt>0</asrwt>
<pdfrwt beam="1">  1       21 0.19484861E-01 0.37110712E+03</pdfrwt>
<pdfrwt beam="2">  1        2 0.51337187E+00 0.37110712E+03</pdfrwt>
<totfact> 0.36955146E+02</totfact>
</mgrwt>
</event>
<event>
10   0  0.3368750E-06  0.1202378E+03  0.7546771E-02  0.1243194E+00
       -1   -1    0    0    0  501  0.00000000000E+00  0.00000000000E+00  0.26105908369E+02  0.26105908369E+02  0.00000000000E+00 0.  1.
        1   -1    0    0  502    0  0.00000000000E+00  0.00000000000E+00 -0.11689688755E+04  0.11689688755E+04  0.00000000000E+00 0. -1.
       23    2    1    2    0    0  0.64959396538E+02  0.96824596958E+02 -0.32487328471E+03  0.35654925848E+03  0.89386782200E+02 0.  0.
       23    2    1    2    0    0 -0.25552531418E+02 -0.49491280783E+02 -0.56987832645E+03  0.57977279262E+03  0.90955293272E+02 0.  0.
      -11    1    3    3    0    0  0.99544414016E+01  0.53024699365E+02 -0.52620568871E+02  0.75363345963E+02  0.00000000000E+00 0.  1.
       11    1    3    3    0    0  0.55004955136E+02  0.43799897593E+02 -0.27225271583E+03  0.28118591252E+03  0.00000000000E+00 0. -1.
      -13    1    4    4    0    0 -0.20369916506E+02  0.24841911673E+02 -0.17621176633E+03  0.17911627695E+03  0.00000000000E+00 0.  1.
       13    1    4    4    0    0 -0.51826149119E+01 -0.74333192457E+02 -0.39366656012E+03  0.40065651568E+03  0.00000000000E+00 0. -1.
       21    1    1    2  502  503 -0.16387594531E+02 -0.11556028237E+02 -0.15609406388E+03  0.15737678298E+03  0.00000000000E+00 0. -1.
       21    1    1    2  503  501 -0.23019270589E+02 -0.35777287938E+02 -0.92017292117E+02  0.10137594981E+03  0.00000000000E+00 0. -1.
<mgrwt>
<rscale>  2 0.11994123E+03</rscale>
<asrwt>0</asrwt>
<pdfrwt beam="1">  1        1 0.17984137E+00 0.12023785E+03</pdfrwt>
<pdfrwt beam="2">  1       -1 0.40162936E-02 0.12023785E+03</pdfrwt>
<totfact> 0.29004288E+03</totfact>
</mgrwt>
</event>
<event>
10   0  0.3368750E-06  0.1812466E+03  0.7546771E-02  0.1167377E+00
       -4   -1    0    0    0  501  0.00000000000E+00  0.00000000000E+00  0.91339713835E+03  0.91339713835E+03  0.00000000000E+00 0.  1.
        4   -1    0    0  503    0  0.00000000000E+00  0.00000000000E+00 -0.72122560047E+02  0.72122560047E+02  0.00000000000E+00 0. -1.
       23    2    1    2    0    0 -0.20833800031E+01  0.16228126868E+03  0.50305202583E+03  0.53636152315E+03  0.91009846665E+02 0.  0.
       23    2    1    2    0    0  0.50713156089E+02 -0.14521390613E+03  0.31127579628E+03  0.35732969438E+03  0.84457009205E+02 0.  0.
      -11    1    4    4    0    0 -0.20890200456E+02 -0.55301686489E+02  0.12803180508E+03  0.14102063720E+03  0.00000000000E+00 0. -1.
       11    1    4    4    0    0  0.71603356545E+02 -0.89912219643E+02  0.18324399120E+03  0.21630905718E+03  0.00000000000E+00 0.  1.
      -13    1    3    3    0    0  0.24191028408E+02  0.82982066044E+02  0.14600861249E+03  0.16967540795E+03  0.00000000000E+00 0. -1.
       13    1    3    3    0    0 -0.26274408411E+02  0.79299202638E+02  0.35704341334E+03  0.36668611521E+03  0.00000000000E+00 0.  1.
       21    1    1    2  502  501 -0.51767358483E+02  0.10827619384E+02  0.34014506557E+02  0.62881502862E+02  0.00000000000E+00 0. -1.
       21    1    1    2  503  502  0.31375823971E+01 -0.27894981935E+02 -0.70677503575E+01  0.28946978004E+02  0.00000000000E+00 0. -1.
<mgrwt>
<rscale>  2 0.18044122E+03</rscale>
<asrwt>0</asrwt>
<pdfrwt beam="1">  1        4 0.11095778E-01 0.18124662E+03</pdfrwt>
<pdfrwt beam="2">  1       -4 0.14052264E+00 0.18124662E+03</pdfrwt>
<totfact> 0.41878780E+01</totfact>
</mgrwt>
</event>
<event>
10   0  0.3368750E-06  0.3002790E+03  0.7546771E-02  0.1120085E+00
       -3   -1    0    0    0  501  0.00000000000E+00  0.00000000000E+00  0.33771858967E+02  0.33771858967E+02  0.00000000000E+00 0. -1.
        2   -1    0    0  501    0  0.00000000000E+00  0.00000000000E+00 -0.49915331798E+04  0.49915331798E+04  0.00000000000E+00 0. -1.
       23    2    1    2    0    0  0.57617291802E+02 -0.69411939020E+02 -0.12352188221E+04  0.12418412690E+04  0.90919905949E+02 0.  0.
       23    2    1    2    0    0  0.87285120421E+02  0.69105350598E+01 -0.20096836358E+04  0.20134278314E+04  0.86005049068E+02 0.  0.
      -11    1    3    3    0    0 -0.12110662434E+02  0.10319603324E+02 -0.68467341771E+02  0.70291814933E+02  0.00000000000E+00 0.  1.
       11    1    3    3    0    0  0.69727954236E+02 -0.79731542344E+02 -0.11667514803E+04  0.11715494540E+04  0.00000000000E+00 0. -1.
      -13    1    4    4    0    0  0.38761019336E+02 -0.32844080520E+02 -0.53395879667E+03  0.53637034481E+03  0.00000000000E+00 0.  1.
       13    1    4    4    0    0  0.48524101085E+02  0.39754615579E+02 -0.14757248392E+04  0.14770574866E+04  0.00000000000E+00 0. -1.
        2    1    1    2  502    0 -0.13849165529E+03  0.10302570389E+03 -0.17197864609E+04  0.17284269454E+04  0.00000000000E+00 0. -1.
       -3    1    1    2    0  502 -0.64107569340E+01 -0.40524299929E+02  0.69275979761E+01  0.41608993053E+02  0.00000000000E+00 0. -1.
<mgrwt>
<rscale>  2 0.23956234E+03</rscale>
<asrwt>0</asrwt>
<pdfrwt beam="1">  1        2 0.76792818E+00 0.30027900E+03</pdfrwt>
<pdfrwt beam="2">  1       -3 0.51956706E-02 0.30027900E+03</pdfrwt>
<totfact> 0.70303500E+00</totfact>
</mgrwt>
</event>
<event>
10   0  0.3368750E-06  0.3127945E+03  0.7546771E-02  0.1079014E+00
       21   -1    0    0  501  502  0.00000000000E+00  0.00000000000E+00  0.28479380804E+02  0.28479380804E+02  0.00000000000E+00 0.  1.
        2   -1    0    0  503    0  0.00000000000E+00  0.00000000000E+00 -0.13870809849E+04  0.13870809849E+04  0.00000000000E+00 0. -1.
       23    2    1    2    0    0 -0.13344367291E+01  0.32650807980E+02 -0.77273078503E+03  0.77869016494E+03  0.90430364678E+02 0.  0.
       23    2    1    2    0    0  0.13191483467E+02 -0.57059446596E+01 -0.57057657564E+03  0.57801625154E+03  0.91315854782E+02 0.  0.
      -11    1    4    4    0    0 -0.26288852181E+02 -0.13924759542E+02 -0.73294870296E+02  0.79102090295E+02  0.00000000000E+00 0.  1.
       11    1    4    4    0    0  0.39480335648E+02  0.82188148824E+01 -0.49728170534E+03  0.49891416124E+03  0.00000000000E+00 0. -1.
      -13    1    3    3    0    0 -0.45363664569E+02  0.95770927547E+01 -0.38891486956E+03  0.39166868465E+03  0.00000000000E+00 0.  1.
       13    1    3    3    0    0  0.44029227840E+02  0.23073715225E+02 -0.38381591546E+03  0.38702148028E+03  0.00000000000E+00 0. -1.
       21    1    1    2  503  502 -0.29598039519E+02 -0.17341938439E+02 -0.17588798054E+02  0.38550649660E+02  0.00000000000E+00 0.  1.
        2    1    1    2  501    0  0.17740992781E+02 -0.96029248809E+01  0.22945546538E+01  0.20303299539E+02  0.00000000000E+00 0. -1.
<mgrwt>
<rscale>  2 0.31279452E+03</rscale>
<asrwt>0</asrwt>
<pdfrwt beam="1">  1       21 0.43814432E-02 0.31279452E+03</pdfrwt>
<pdfrwt beam="2">  1        2 0.21339707E+00 0.31279452E+03</pdfrwt>
<totfact> 0.66787699E+04</totfact>
</mgrwt>
</event>
<event>
10   0  0.3368750E-06  0.1380958E+03  0.7546771E-02  0.1220033E+00
       -2   -1    0    0    0  501  0.00000000000E+00  0.00000000000E+00  0.12500008937E+02  0.12500008937E+02  0.00000000000E+00 0.  1.
        2   -1    0    0  502    0  0.00000000000E+00  0.00000000000E+00 -0.32171875097E+04  0.32171875097E+04  0.00000000000E+00 0. -1.
       23    2    1    2    0    0 -0.12068250042E+03  0.53857698034E+02 -0.96290230979E+03  0.97625287027E+03  0.91781757261E+02 0.  0.
       23    2    1    2    0    0  0.65186693408E+02 -0.31742876714E+02 -0.19069863766E+04  0.19113650021E+04  0.10706173599E+03 0.  0.
      -11    1    4    4    0    0  0.50669384233E+02  0.33055453485E+02 -0.10938135643E+04  0.10954853550E+04  0.00000000000E+00 0. -1.
       11    1    4    4    0    0  0.14517309175E+02 -0.64798330199E+02 -0.81317281230E+03  0.81587964708E+03  0.00000000000E+00 0.  1.
      -13    1    3    3    0    0 -0.64600463004E+02 -0.69699331790E+01 -0.62502856159E+03  0.62839677163E+03  0.00000000000E+00 0. -1.
       13    1    3    3    0    0 -0.56082037416E+02  0.60827631213E+02 -0.33787374820E+03  0.34785609864E+03  0.00000000000E+00 0.  1.
       21    1    1    2  502  503  0.35442368318E+02 -0.20756282527E+02 -0.29093674047E+03  0.29382166648E+03  0.00000000000E+00 0. -1.
       21    1    1    2  503  501  0.20053438694E+02 -0.13585387939E+01 -0.43862073886E+02  0.48247979820E+02  0.00000000000E+00 0. -1.
<mgrwt>
<rscale>  2 0.13513232E+03</rscale>
<asrwt>0</asrwt>
<pdfrwt beam="1">  1        2 0.49495192E+00 0.13809580E+03</pdfrwt>
<pdfrwt beam="2">  1       -2 0.19230783E-02 0.13809580E+03</pdfrwt>
<totfact> 0.12998049E+03</totfact>
</mgrwt>
</event>
<event>
10   0  0.3368750E-06  0.1941823E+03  0.7546771E-02  0.1174072E+00
       21   -1    0    0  501  502  0.00000000000E+00  0.00000000000E+00  0.16420689656E+02  0.16420689656E+02  0.00000000000E+00 0.  1.
        1   -1    0    0  503    0  0.00000000000E+00  0.00000000000E+00 -0.20066946748E+04  0.20066946748E+04  0.00000000000E+00 0. -1.
       23    2    1    2    0    0  0.65766601722E+02  0.50341474054E+02 -0.11022345195E+04  0.11089638557E+04  0.89556615820E+02 0.  0.
       23    2    1    2    0    0 -0.38366976355E+02 -0.43252884121E+00 -0.35480063226E+03  0.37265344056E+03  0.10730743755E+03 0.  0.
      -11    1    3    3    0    0  0.45451233780E+01 -0.13943671536E+02 -0.33760359382E+02  0.36808232612E+02  0.00000000000E+00 0.  1.
       11    1    3    3    0    0  0.61221478344E+02  0.64285145591E+02 -0.10684741601E+04  0.10721556231E+04  0.00000000000E+00 0. -1.
      -13    1    4    4    0    0 -0.74182497775E+02  0.13542969039E+02 -0.22725918061E+03  0.23944350097E+03  0.00000000000E+00 0.  1.
       13    1    4    4    0    0  0.35815521421E+02 -0.13975497881E+02 -0.12754145165E+03  0.13320993959E+03  0.00000000000E+00 0. -1.
       21    1    1    2  503  502  0.79908281486E+01  0.13642336761E+02 -0.41526302456E+02  0.44434226475E+02  0.00000000000E+00 0. -1.
        1    1    1    2  501    0 -0.35390453516E+02 -0.63551281974E+02 -0.49171253098E+03  0.49706384174E+03  0.00000000000E+00 0. -1.
<mgrwt>
<rscale>  2 0.17367194E+03</rscale>
<asrwt>0</asrwt>
<pdfrwt beam="1">  1       21 0.25262599E-02 0.19418226E+03</pdfrwt>
<pdfrwt beam="2">  1        1 0.30872226E+00 0.19418226E+03</pdfrwt>
<totfact> 0.32112382E+04</totfact>
</mgrwt>
</event>
<event>
10   0  0.3368750E-06  0.1709609E+03  0.7546771E-02  0.1178477E+00
       -2   -1    0    0    0  501  0.00000000000E+00  0.00000000000E+00  0.22383320856E+03  0.22383320856E+03  0.00000000000E+00 0.  1.
        2   -1    0    0  502    0  0.00000000000E+00  0.00000000000E+00 -0.54096392045E+03  0.54096392045E+03  0.00000000000E+00 0. -1.
       23    2    1    2    0    0 -0.13944238658E+03 -0.21836743365E+02 -0.12664378842E+03  0.21052142799E+03  0.91430847959E+02 0.  0.
       23    2    1    2    0    0  0.11378406855E+03  0.14930487709E+03  0.29120600351E+02  0.21567851586E+03  0.10212958562E+03 0.  0.
      -11    1    3    3    0    0  0.21479636919E+01 -0.22607710227E+02 -0.37144064229E+01  0.23011282555E+02  0.00000000000E+00 0.  1.
       11    1    3    3    0    0 -0.14159035027E+03  0.77096686230E+00 -0.12292938200E+03  0.18751014543E+03  0.00000000000E+00 0. -1.
      -13    1    4    4    0    0  0.82504761739E+02  0.37046014969E+02  0.39483923429E+02  0.98683449190E+02  0.00000000000E+00 0. -1.
       13    1    4    4    0    0  0.31279306811E+02  0.11225886212E+03 -0.10363323078E+02  0.11699506667E+03  0.00000000000E+00 0.  1.
       21    1    1    2  502  503  0.20695330401E+02 -0.26187385135E+01 -0.21242086048E+03  0.21344267722E+03  0.00000000000E+00 0. -1.
       21    1    1    2  503  501  0.49629876308E+01 -0.12484939521E+03 -0.71866633400E+01  0.12515450795E+03  0.00000000000E+00 0. -1.
<mgrwt>
<rscale>  2 0.16939770E+03</rscale>
<asrwt>0</asrwt>
<pdfrwt beam="1">  1        2 0.83225219E-01 0.17096095E+03</pdfrwt>
<pdfrwt beam="2">  1       -2 0.34435878E-01 0.17096095E+03</pdfrwt>
<totfact> 0.45535690E+02</totfact>
</mgrwt>
</event>
<event>
10   0  0.3368750E-06  0.1057830E+03  0.7546771E-02  0.1269663E+00
       21   -1    0    0  503  502  0.00000000000E+00  0.00000000000E+00  0.56361763981E+03  0.56361763981E+03  0.00000000000E+00 0. -1.
        2   -1    0    0  502    0  0.00000000000E+00  0.00000000000E+00 -0.29243655090E+03  0.29243655090E+03  0.00000000000E+00 0. -1.
       23    2    1    2    0    0  0.18698412037E+02 -0.49948365521E+02 -0.22699573291E+03  0.25117135093E+03  0.93356922277E+02 0.  0.
       23    2    1    2    0    0  0.41405680343E+02  0.43810493299E+02  0.13889574373E+02  0.10992866513E+03  0.90871345615E+02 0.  0.
      -11    1    3    3    0    0 -0.31807283524E+02  0.56088144033E+01 -0.62585609160E+02  0.70428123347E+02  0.00000000000E+00 0.  1.
       11    1    3    3    0    0  0.50505695561E+02 -0.55557179924E+02 -0.16441012375E+03  0.18074322758E+03  0.00000000000E+00 0. -1.
      -13    1    4    4    0    0 -0.25820634201E+02  0.22339306906E+00 -0.77102513523E+01  0.26948154499E+02  0.00000000000E+00 0.  1.
       13    1    4    4    0    0  0.67226314544E+02  0.43587100230E+02  0.21599825725E+02  0.82980510634E+02  0.00000000000E+00 0. -1.
       21    1    1    2  503  501  0.45519000520E+01 -0.90059113129E+01  0.27923504942E+03  0.27941732061E+03  0.00000000000E+00 0. -1.
        2    1    1    2  501    0 -0.64655992432E+02  0.15143783534E+02  0.20505219803E+03  0.21553685405E+03  0.00000000000E+00 0. -1.
<mgrwt>
<rscale>  2 0.10523201E+03</rscale>
<asrwt>0</asrwt>
<pdfrwt beam="1">  1       21 0.86710406E-01 0.10578305E+03</pdfrwt>
<pdfrwt beam="2">  1        2 0.44990239E-01 0.10578305E+03</pdfrwt>
<totfact> 0.16765562E+03</totfact>
</mgrwt>
</event>
<event>
10   0  0.3368750E-06  0.3492025E+03  0.7546771E-02  0.1086552E+00
        2   -1    0    0  502    0  0.00000000000E+00  0.00000000000E+00  0.94424914929E+02  0.94424914929E+02  0.00000000000E+00 0. -1.
        2   -1    0    0  501    0  0.00000000000E+00  0.00000000000E+00 -0.24221897813E+04  0.24221897813E+04  0.00000000000E+00 0. -1.
       23    2    1    2    0    0 -0.52769966275E+02 -0.23433348516E+02 -0.19186583835E+03  0.22006026387E+03  0.90995761686E+02 0.  0.
       23    2    1    2    0    0  0.88337509229E+02  0.12443108623E+03 -0.10554281944E+03  0.21185245806E+03  0.10225246449E+03 0.  0.
      -11    1    4    4    0    0  0.24172093094E+02  0.10180830175E+03 -0.98060962731E+02  0.14340562333E+03  0.00000000000E+00 0.  1.
       11    1    4    4    0    0  0.64165416135E+02  0.22622784479E+02 -0.74818567064E+01  0.68446834734E+02  0.00000000000E+00 0. -1.
      -13    1    3    3    0    0  0.14608888913E+02 -0.34325006171E+02 -0.47711295716E+02  0.60563961419E+02  0.00000000000E+00 0. -1.
       13    1    3    3    0    0 -0.67378855188E+02  0.10891657655E+02 -0.14415454263E+03  0.15949630245E+03  0.00000000000E+00 0.  1.
        2    1    1    2  501    0 -0.79259847290E+02 -0.15297945628E+03 -0.25326325825E+03  0.30631212091E+03  0.00000000000E+00 0. -1.
        2    1    1    2  502    0  0.43692304336E+02  0.51981718568E+02 -0.17770929503E+04  0.17783898534E+04  0.00000000000E+00 0. -1.
<mgrwt>
<rscale>  2 0.29739223E+03</rscale>
<asrwt>0</asrwt>
<pdfrwt beam="1">  1        2 0.14526910E-01 0.34920248E+03</pdfrwt>
<pdfrwt beam="2">  1        2 0.37264458E+00 0.34920248E+03</pdfrwt>
<totfact> 0.27120276E+02</totfact>
</mgrwt>
</event>
<event>
10   0  0.3368750E-06  0.1035215E+03  0.7546771E-02  0.1273186E+00
        1   -1    0    0  503    0  0.00000000000E+00  0.00000000000E+00  0.12433440318E+03  0.12433440318E+03  0.00000000000E+00 0. -1.
       21   -1    0    0  501  502  0.00000000000E+00  0.00000000000E+00 -0.44412609771E+03  0.44412609771E+03  0.00000000000E+00 0. -1.
       23    2    1    2    0    0 -0.35450580037E+01 -0.74257664669E+02 -0.33024298061E+03  0.35079175664E+03  0.92019900492E+02 0.  0.
       23    2    1    2    0    0  0.32313835992E+02  0.29296764456E+02 -0.28664978239E+02  0.10603483658E+03  0.92299627231E+02 0.  0.
      -11    1    3    3    0    0  0.35736576529E+02 -0.23599085385E+01 -0.85431551086E+02  0.92634885391E+02  0.00000000000E+00 0.  1.
       11    1    3    3    0    0 -0.39281634533E+02 -0.71897756130E+02 -0.24481142952E+03  0.25815687125E+03  0.00000000000E+00 0. -1.
      -13    1    4    4    0    0 -0.12793870328E+02  0.40811740125E+02  0.11783129253E+02  0.44363536660E+02  0.00000000000E+00 0. -1.
       13    1    4    4    0    0  0.45107706320E+02 -0.11514975669E+02 -0.40448107493E+02  0.61671299920E+02  0.00000000000E+00 0.  1.
       21    1    1    2  503  502 -0.75718025376E+01  0.72485163229E+01  0.61871455738E+02  0.62753089308E+02  0.00000000000E+00 0. -1.
        1    1    1    2  501    0 -0.21196975451E+02  0.37712383890E+02 -0.22755191420E+02  0.48880818359E+02  0.00000000000E+00 0. -1.
<mgrwt>
<rscale>  2 0.10345908E+03</rscale>
<asrwt>0</asrwt>
<pdfrwt beam="1">  1       21 0.68327092E-01 0.10352146E+03</pdfrwt>
<pdfrwt beam="2">  1        1 0.19128370E-01 0.10352146E+03</pdfrwt>
<totfact> 0.58315147E+03</totfact>
</mgrwt>
</event>
<event>
10   0  0.3368750E-06  0.1376253E+03  0.7546771E-02  0.1234572E+00
        2   -1    0    0  503    0  0.00000000000E+00  0.00000000000E+00  0.32207327124E+03  0.32207327124E+03  0.00000000000E+00 0. -1.
       21   -1    0    0  501  502  0.00000000000E+00  0.00000000000E+00 -0.47269290662E+03  0.47269290662E+03  0.00000000000E+00 0. -1.
       23    2    1    2    0    0 -0.75774107620E+02  0.77292340584E+02 -0.22077573342E+02  0.14071497877E+03  0.87163436759E+02 0.  0.
       23    2    1    2    0    0 -0.13258774222E+02 -0.28320837553E+01  0.14617362031E+03  0.17405584210E+03  0.93514133167E+02 0.  0.
      -11    1    4    4    0    0 -0.39830663536E+02  0.25963527562E+02  0.44612899002E+02  0.65198905501E+02  0.00000000000E+00 0. -1.
       11    1    4    4    0    0  0.26571889313E+02 -0.28795611318E+02  0.10156072131E+03  0.10885693660E+03  0.00000000000E+00 0.  1.
      -13    1    3    3    0    0 -0.37266905917E+02 -0.71020168362E+01  0.15026895166E+02  0.40805250864E+02  0.00000000000E+00 0. -1.
       13    1    3    3    0    0 -0.38507201703E+02  0.84394357421E+02 -0.37104468508E+02  0.99909727908E+02  0.00000000000E+00 0.  1.
       21    1    1    2  503  502  0.93043625769E+02 -0.60220076223E+02  0.72517225532E+02  0.13244743061E+03  0.00000000000E+00 0. -1.
        2    1    1    2  501    0 -0.40107439266E+01 -0.14240180606E+02 -0.34723290788E+03  0.34754792638E+03  0.00000000000E+00 0. -1.
<mgrwt>
<rscale>  2 0.12531844E+03</rscale>
<asrwt>0</asrwt>
<pdfrwt beam="1">  1       21 0.72721986E-01 0.13762525E+03</pdfrwt>
<pdfrwt beam="2">  1        2 0.49549734E-01 0.13762525E+03</pdfrwt>
<totfact> 0.21959477E+03</totfact>
</mgrwt>
</event>
<event>
10   0  0.3368750E-06  0.1101733E+03  0.7546771E-02  0.1265560E+00
        2   -1    0    0  503    0  0.00000000000E+00  0.00000000000E+00  0.11466584909E+04  0.11466584909E+04  0.00000000000E+00 0. -1.
       21   -1    0    0  501  502  0.00000000000E+00  0.00000000000E+00 -0.18842729224E+03  0.18842729224E+03  0.00000000000E+00 0.  1.
       23    2    1    2    0    0 -0.33451676658E+02  0.40941385124E+02  0.49075100750E+03  0.50013684416E+03  0.80654199147E+02 0.  0.
       23    2    1    2    0    0  0.24847543566E+02 -0.59648080693E+02  0.63986131672E+03  0.64990770962E+03  0.93713565889E+02 0.  0.
      -11    1    4    4    0    0  0.19230571086E+02  0.40659733712E+01  0.43156436882E+03  0.43201174919E+03  0.00000000000E+00 0.  1.
       11    1    4    4    0    0  0.56169724801E+01 -0.63714054065E+02  0.20829694791E+03  0.21789596043E+03  0.00000000000E+00 0. -1.
      -13    1    3    3    0    0 -0.56931015328E+02  0.45034177459E+02  0.37326024430E+03  0.38025310994E+03  0.00000000000E+00 0.  1.
       13    1    3    3    0    0  0.23479338670E+02 -0.40927923350E+01  0.11749076320E+03  0.11988373422E+03  0.00000000000E+00 0. -1.
       21    1    1    2  503  502  0.13213364886E+02  0.74808282233E+01 -0.17223708832E+03  0.17290509072E+03  0.00000000000E+00 0.  1.
        2    1    1    2  501    0 -0.46092317935E+01  0.11225867346E+02 -0.14403721079E+00  0.12136138682E+02  0.00000000000E+00 0. -1.
<mgrwt>
<rscale>  2 0.10734889E+03</rscale>
<asrwt>0</asrwt>
<pdfrwt beam="1">  1       21 0.28988814E-01 0.11017331E+03</pdfrwt>
<pdfrwt beam="2">  1        2 0.17640900E+00 0.11017331E+03</pdfrwt>
<totfact> 0.32681098E+03</totfact>
</mgrwt>
</event>
<event>
10   0  0.3368750E-06  0.6310034E+03  0.7546771E-02  0.9843093E-01
       -3   -1    0    0    0  501  0.00000000000E+00  0.00000000000E+00  0.23808192787E+03  0.23808192787E+03  0.00000000000E+00 0.  1.
        2   -1    0    0  501    0  0.00000000000E+00  0.00000000000E+00 -0.87163944403E+03  0.87163944403E+03  0.00000000000E+00 0.  1.
       23    2    1    2    0    0  0.59872209533E+02  0.49827664477E+01  0.12825392291E+03  0.16873206707E+03  0.91716586727E+02 0.  0.
       23    2    1    2    0    0  0.93241282422E+02  0.80535717302E+02 -0.27587614060E+03  0.31565693643E+03  0.91387734713E+02 0.  0.
      -11    1    3    3    0    0  0.58054210912E+02 -0.34340300696E+02  0.98528879024E+02  0.11940472209E+03  0.00000000000E+00 0.  1.
       11    1    3    3    0    0  0.18179986210E+01  0.39323067144E+02  0.29725043883E+02  0.49327344977E+02  0.00000000000E+00 0. -1.
      -13    1    4    4    0    0  0.64670927223E+02  0.92038969953E+02 -0.25425248942E+03  0.27802487154E+03  0.00000000000E+00 0.  1.
       13    1    4    4    0    0  0.28570355199E+02 -0.11503252650E+02 -0.21623651179E+02  0.37632064892E+02  0.00000000000E+00 0. -1.
        2    1    1    2  502    0 -0.97539707344E+01  0.34493982668E+01 -0.45337984285E+03  0.45349787232E+03  0.00000000000E+00 0.  1.
       -3    1    1    2    0  502 -0.14335952122E+03 -0.88967882017E+02 -0.32555455630E+02  0.17183449609E+03  0.00000000000E+00 0.  1.
<mgrwt>
<rscale>  2 0.63100340E+03</rscale>
<asrwt>0</asrwt>
<pdfrwt beam="1">  1        2 0.13409838E+00 0.63100340E+03</pdfrwt>
<pdfrwt beam="2">  1       -3 0.36627989E-01 0.63100340E+03</pdfrwt>
<totfact> 0.14550272E+02</totfact>
</mgrwt>
</event>
<event>
10   0  0.3368750E-06  0.1282684E+03  0.7546771E-02  0.1244305E+00
        2   -1    0    0  502    0  0.00000000000E+00  0.00000000000E+00  0.22558138285E+04  0.22558138285E+04  0.00000000000E+00 0.  1.
        2   -1    0    0  501    0  0.00000000000E+00  0.00000000000E+00 -0.12574713508E+04  0.12574713508E+04  0.00000000000E+00 0. -1.
       23    2    1    2    0    0  0.30276953045E+02 -0.24150656614E+02 -0.37614357816E+03  0.38817411814E+03  0.87722326136E+02 0.  0.
       23    2    1    2    0    0 -0.88006870379E+02 -0.20806793093E+02 -0.64329271089E+03  0.65625044998E+03  0.93064544018E+02 0.  0.
      -11    1    4    4    0    0 -0.74388030443E+02 -0.52871120260E+02 -0.52729595327E+03  0.53513545647E+03  0.00000000000E+00 0. -1.
       11    1    4    4    0    0 -0.13618839937E+02  0.32064327168E+02 -0.11599675762E+03  0.12111499352E+03  0.00000000000E+00 0.  1.
      -13    1    3    3    0    0 -0.20201956579E+02  0.89228935173E+01 -0.32639190936E+02  0.39408804388E+02  0.00000000000E+00 0. -1.
       13    1    3    3    0    0  0.50478909624E+02 -0.33073550132E+02 -0.34350438722E+03  0.34876531375E+03  0.00000000000E+00 0.  1.
        2    1    1    2  501    0 -0.74422544091E+02  0.91330420474E+02  0.22198641336E+04  0.22229882439E+04  0.00000000000E+00 0.  1.
        2    1    1    2  502    0  0.13215246143E+03 -0.46372970767E+02 -0.20208536684E+03  0.24587236724E+03  0.00000000000E+00 0. -1.
<mgrwt>
<rscale>  2 0.11927097E+03</rscale>
<asrwt>0</asrwt>
<pdfrwt beam="1">  1        2 0.34704828E+00 0.12826845E+03</pdfrwt>
<pdfrwt beam="2">  1        2 0.19345713E+00 0.12826845E+03</pdfrwt>
<totfact> 0.18075177E+01</totfact>
</mgrwt>
</event>
<event>
10   0  0.3368750E-06  0.9297635E+02  0.7546771E-02  0.1300913E+00
        2   -1    0    0  502    0  0.00000000000E+00  0.00000000000E+00  0.14657616051E+04  0.14657616051E+04  0.00000000000E+00 0. -1.
       21   -1    0    0  503  502  0.00000000000E+00  0.00000000000E+00 -0.55020217816E+02  0.55020217816E+02  0.00000000000E+00 0. -1.
       23    2    1    2    0    0  0.16663490416E+02  0.23500244577E+02  0.11390836659E+04  0.11429930349E+04  0.89953023506E+02 0.  0.
       23    2    1    2    0    0 -0.50645846888E+02  0.70452848264E+02  0.13491149854E+03  0.17971078350E+03  0.81032386310E+02 0.  0.
      -11    1    3    3    0    0 -0.10137575009E+02 -0.31467295572E+02  0.43947092364E+03  0.44071266585E+03  0.00000000000E+00 0.  1.
       11    1    3    3    0    0  0.26801065425E+02  0.54967540149E+02  0.69961274231E+03  0.70228036907E+03  0.00000000000E+00 0. -1.
      -13    1    4    4    0    0 -0.58122693581E+02  0.13335906300E+02  0.54430852467E+02  0.80739157825E+02  0.00000000000E+00 0. -1.
       13    1    4    4    0    0  0.74768466930E+01  0.57116941964E+02  0.80480646074E+02  0.98971625672E+02  0.00000000000E+00 0.  1.
       21    1    1    2  503  501  0.44545456277E+01 -0.15418645445E+02  0.10830324782E+03  0.10948594016E+03  0.00000000000E+00 0. -1.
        2    1    1    2  501    0  0.29527810845E+02 -0.78534447396E+02  0.28442974994E+02  0.88592064360E+02  0.00000000000E+00 0. -1.
<mgrwt>
<rscale>  2 0.90805426E+02</rscale>
<asrwt>0</asrwt>
<pdfrwt beam="1">  1       21 0.84646489E-02 0.92976352E+02</pdfrwt>
<pdfrwt beam="2">  1        2 0.22550179E+00 0.92976352E+02</pdfrwt>
<totfact> 0.20535312E+04</totfact>
</mgrwt>
</event>
<event>
10   0  0.3368750E-06  0.9669688E+02  0.7546771E-02  0.1288770E+00
        1   -1    0    0  503    0  0.00000000000E+00  0.00000000000E+00  0.99502477617E+02  0.99502477617E+02  0.00000000000E+00 0. -1.
       -1   -1    0    0    0  501  0.00000000000E+00  0.00000000000E+00 -0.16294413974E+03  0.16294413974E+03  0.00000000000E+00 0.  1.
       23    2    1    2    0    0 -0.97699730495E+00 -0.10312224708E+02  0.10671527200E+02  0.92343956193E+02  0.91138511347E+02 0.  0.
       23    2    1    2    0    0  0.40010131684E+02  0.13898570691E+02 -0.69343910563E+02  0.12400840428E+03  0.93677774823E+02 0.  0.
      -11    1    4    4    0    0  0.19313344927E+02 -0.35317596971E+02 -0.52566741235E+01  0.40595203792E+02  0.00000000000E+00 0. -1.
       11    1    4    4    0    0  0.20696786756E+02  0.49216167662E+02 -0.64087236440E+02  0.83413200489E+02  0.00000000000E+00 0.  1.
      -13    1    3    3    0    0  0.31227733304E+02  0.72938323558E+01 -0.25380149114E+02  0.40896494798E+02  0.00000000000E+00 0.  1.
       13    1    3    3    0    0 -0.32204730609E+02 -0.17606057064E+02  0.36051676314E+02  0.51447461395E+02  0.00000000000E+00 0. -1.
       21    1    1    2  502  501 -0.16206384212E+02 -0.34372632644E+01 -0.13784136441E+02  0.21551428848E+02  0.00000000000E+00 0. -1.
       21    1    1    2  503  502 -0.22826750167E+02 -0.14908271879E+00  0.90148576830E+01  0.24542828033E+02  0.00000000000E+00 0.  1.
<mgrwt>
<rscale>  2 0.96076463E+02</rscale>
<asrwt>0</asrwt>
<pdfrwt beam="1">  1        1 0.15308073E-01 0.96696879E+02</pdfrwt>
<pdfrwt beam="2">  1       -1 0.25068329E-01 0.96696879E+02</pdfrwt>
<totfact> 0.46943028E+03</totfact>
</mgrwt>
</event>
<event>
10   0  0.3368750E-06  0.1284167E+03  0.7546771E-02  0.1232545E+00
       21   -1    0    0  503  502  0.00000000000E+00  0.00000000000E+00  0.21399447218E+02  0.21399447218E+02  0.00000000000E+00 0.  1.
        1   -1    0    0  502    0  0.00000000000E+00  0.00000000000E+00 -0.13283471932E+04  0.13283471932E+04  0.00000000000E+00 0. -1.
       23    2    1    2    0    0 -0.77252735865E+02  0.66770080600E+01 -0.64489670216E+03  0.65586339869E+03  0.90843126544E+02 0.  0.
       23    2    1    2    0    0  0.11515079587E+03  0.45566457717E+01 -0.48760574238E+03  0.50748702427E+03  0.80642736794E+02 0.  0.
      -11    1    4    4    0    0  0.10332488966E+03  0.30834863401E+02 -0.32708108531E+03  0.34439636756E+03  0.00000000000E+00 0.  1.
       11    1    4    4    0    0  0.11825906209E+02 -0.26278217629E+02 -0.16052465707E+03  0.16309065671E+03  0.00000000000E+00 0. -1.
      -13    1    3    3    0    0 -0.41024535435E+02  0.15061921073E+02 -0.57528071238E+03  0.57693827401E+03  0.00000000000E+00 0. -1.
       13    1    3    3    0    0 -0.36228200430E+02 -0.83849130128E+01 -0.69615989781E+02  0.78925124681E+02  0.00000000000E+00 0.  1.
       21    1    1    2  503  501  0.13611873190E+01  0.13227862023E+02 -0.13555426033E+02  0.18988910963E+02  0.00000000000E+00 0. -1.
        1    1    1    2  501    0 -0.39259247323E+02 -0.24461515855E+02 -0.16088987536E+03  0.16740730645E+03  0.00000000000E+00 0. -1.
<mgrwt>
<rscale>  2 0.12662931E+03</rscale>
<asrwt>0</asrwt>
<pdfrwt beam="1">  1       21 0.32922226E-02 0.12841668E+03</pdfrwt>
<pdfrwt beam="2">  1        1 0.20436111E+00 0.12841668E+03</pdfrwt>
<totfact> 0.57656142E+04</totfact>
</mgrwt>
</event>
<event>
10   0  0.3368750E-06  0.9795745E+02  0.7546771E-02  0.1285124E+00
        2   -1    0    0  501    0  0.00000000000E+00  0.00000000000E+00  0.80551294212E+02  0.80551294212E+02  0.00000000000E+00 0. -1.
       -2   -1    0    0    0  501  0.00000000000E+00  0.00000000000E+00 -0.52270891627E+03  0.52270891627E+03  0.00000000000E+00 0.  1.
       23    2    1    2    0    0 -0.14438382708E+02 -0.42768399649E+02 -0.91561821932E+02  0.13686958635E+03  0.91170793169E+02 0.  0.
       23    2    1    2    0    0  0.40439838079E+01  0.66484321745E+01  0.65277447060E+01  0.92656533387E+02  0.92098133928E+02 0.  0.
      -11    1    4    4    0    0 -0.11383521127E+01  0.48166447541E+02  0.13959492006E+02  0.50161438688E+02  0.00000000000E+00 0.  1.
       11    1    4    4    0    0  0.51823359206E+01 -0.41518015366E+02 -0.74317473002E+01  0.42495094699E+02  0.00000000000E+00 0. -1.
      -13    1    3    3    0    0  0.14622284130E+02 -0.61837200023E+02 -0.41389999774E+02  0.75833914452E+02  0.00000000000E+00 0. -1.
       13    1    3    3    0    0 -0.29060666838E+02  0.19068800374E+02 -0.50171822158E+02  0.61035671894E+02  0.00000000000E+00 0.  1.
        2    1    1    2  502    0  0.24201187740E+02 -0.97884522802E+00 -0.13286323489E+02  0.27625749182E+02  0.00000000000E+00 0. -1.
       -2    1    1    2    0  502 -0.13806788839E+02  0.37098812702E+02 -0.34383722134E+03  0.34610834157E+03  0.00000000000E+00 0.  1.
<mgrwt>
<rscale>  2 0.97738884E+02</rscale>
<asrwt>0</asrwt>
<pdfrwt beam="1">  1        2 0.12392507E-01 0.97957454E+02</pdfrwt>
<pdfrwt beam="2">  1       -2 0.80416756E-01 0.97957454E+02</pdfrwt>
<totfact> 0.67312750E+02</totfact>
</mgrwt>
</event>
<event>
10   0  0.3368750E-06  0.1547094E+03  0.7546771E-02  0.1220265E+00
       -1   -1    0    0    0  501  0.00000000000E+00  0.00000000000E+00  0.33622133756E+02  0.33622133756E+02  0.00000000000E+00 0.  1.
        1   -1    0    0  502    0  0.00000000000E+00  0.00000000000E+00 -0.25851345609E+04  0.25851345609E+04  0.00000000000E+00 0. -1.
       23    2    1    2    0    0  0.56148237291E+02  0.16327893238E+03 -0.60325863121E+03  0.63440238591E+03  0.93449327540E+02 0.  0.
       23    2    1    2    0    0  0.12383699349E+02  0.32017692176E+01 -0.22796146564E+03  0.24494287473E+03  0.88695967955E+02 0.  0.
      -11    1    4    4    0    0 -0.36507000462E+02  0.10575743901E+02 -0.73266262201E+02  0.82538188850E+02  0.00000000000E+00 0. -1.
       11    1    4    4    0    0  0.48890699811E+02 -0.73739746836E+01 -0.15469520344E+03  0.16240468588E+03  0.00000000000E+00 0.  1.
      -13    1    3    3    0    0 -0.82464061358E+01 -0.70786519054E+01 -0.71491763446E+02  0.72313088494E+02  0.00000000000E+00 0.  1.
       13    1    3    3    0    0  0.64394643427E+02  0.17035758429E+03 -0.53176686776E+03  0.56208929742E+03  0.00000000000E+00 0. -1.
       21    1    1    2  502  503 -0.64382168144E+02 -0.68326974133E+02 -0.14273636866E+04  0.14304477386E+04  0.00000000000E+00 0. -1.
       21    1    1    2  503  501 -0.41497684958E+01 -0.98153727466E+02 -0.29292864365E+03  0.30896369539E+03  0.00000000000E+00 0.  1.
<mgrwt>
<rscale>  2 0.13496801E+03</rscale>
<asrwt>0</asrwt>
<pdfrwt beam="1">  1        1 0.39771301E+00 0.15470937E+03</pdfrwt>
<pdfrwt beam="2">  1       -1 0.51726360E-02 0.15470937E+03</pdfrwt>
<totfact> 0.24082768E+02</totfact>
</mgrwt>
</event>
<event>
10   0  0.3368750E-06  0.1667031E+03  0.7546771E-02  0.1181335E+00
       21   -1    0    0  503  502  0.00000000000E+00  0.00000000000E+00  0.22245494494E+03  0.22245494494E+03  0.00000000000E+00 0. -1.
        2   -1    0    0  502    0  0.00000000000E+00  0.00000000000E+00 -0.66758834618E+03  0.66758834618E+03  0.00000000000E+00 0. -1.
       23    2    1    2    0    0 -0.22446248129E+02 -0.16118620099E+03 -0.44442068729E+03  0.48230609241E+03  0.92868692503E+02 0.  0.
       23    2    1    2    0    0 -0.75217692019E+02  0.96774346719E+02 -0.14420124346E+03  0.21079788197E+03  0.92837347291E+02 0.  0.
      -11    1    3    3    0    0  0.14819751272E+02 -0.57830004408E+01 -0.85451690034E+01  0.18057907829E+02  0.00000000000E+00 0.  1.
       11    1    3    3    0    0 -0.37265999401E+02 -0.15540320055E+03 -0.43587551828E+03  0.46424818459E+03  0.00000000000E+00 0. -1.
      -13    1    4    4    0    0 -0.31088205535E+01  0.78418787377E+02 -0.85191058169E+02  0.11583042507E+03  0.00000000000E+00 0.  1.
       13    1    4    4    0    0 -0.72108871466E+02  0.18355559342E+02 -0.59010185294E+02  0.94967456906E+02  0.00000000000E+00 0. -1.
       21    1    1    2  503  501  0.16151336667E+02 -0.11595334709E+02  0.40827529988E+02  0.45411503698E+02  0.00000000000E+00 0. -1.
        2    1    1    2  501    0  0.81512603481E+02  0.76007188980E+02  0.10266099952E+03  0.15152781304E+03  0.00000000000E+00 0. -1.
<mgrwt>
<rscale>  2 0.16669877E+03</rscale>
<asrwt>0</asrwt>
<pdfrwt beam="1">  1       21 0.34223838E-01 0.16670313E+03</pdfrwt>
<pdfrwt beam="2">  1        2 0.10270590E+00 0.16670313E+03</pdfrwt>
<totfact> 0.46506587E+03</totfact>
</mgrwt>
</event>
<event>
10   0  0.3368750E-06  0.2635859E+03  0.7546771E-02  0.1123962E+00
        1   -1    0    0  502    0  0.00000000000E+00  0.00000000000E+00  0.21152397342E+04  0.21152397342E+04  0.00000000000E+00 0. -1.
       21   -1    0    0  503  502  0.00000000000E+00  0.00000000000E+00 -0.11050762650E+03  0.11050762650E+03  0.00000000000E+00 0. -1.
       23    2    1    2    0    0 -0.76351643629E+02  0.10957416426E+03  0.26647324019E+03  0.31147235315E+03  0.90393407262E+02 0.  0.
       23    2    1    2    0    0  0.53490135080E+02 -0.50099307778E+02  0.16434278288E+04  0.16477613484E+04  0.94293677610E+02 0.  0.
      -11    1    3    3    0    0 -0.48490338897E+02  0.15030041047E+02  0.15282902896E+03  0.16104014156E+03  0.00000000000E+00 0.  1.
       11    1    3    3    0    0 -0.27861304733E+02  0.94544123218E+02  0.11364421123E+03  0.15043221158E+03  0.00000000000E+00 0. -1.
      -13    1    4    4    0    0  0.27663121184E+02 -0.61121671107E+02  0.15060169843E+04  0.15075106182E+04  0.00000000000E+00 0. -1.
       13    1    4    4    0    0  0.25827013897E+02  0.11022363329E+02  0.13741084448E+03  0.14025073019E+03  0.00000000000E+00 0.  1.
       21    1    1    2  503  501  0.14071051484E+02  0.12903237235E+02 -0.77276336832E+02  0.79599750346E+02  0.00000000000E+00 0. -1.
        1    1    1    2  501    0  0.87904570650E+01 -0.72378093721E+02  0.17210737550E+03  0.18691390875E+03  0.00000000000E+00 0. -1.
<mgrwt>
<rscale>  2 0.23384601E+03</rscale>
<asrwt>0</asrwt>
<pdfrwt beam="1">  1       21 0.17001173E-01 0.26358587E+03</pdfrwt>
<pdfrwt beam="2">  1        1 0.32542150E+00 0.26358587E+03</pdfrwt>
<totfact> 0.97477175E+02</totfact>
</mgrwt>
</event>
<event>
10   0  0.3368750E-06  0.1726527E+03  0.7546771E-02  0.1194257E+00
        2   -1    0    0  503    0  0.00000000000E+00  0.00000000000E+00  0.96888932086E+03  0.96888932086E+03  0.00000000000E+00 0. -1.
       -2   -1    0    0    0  501  0.00000000000E+00  0.00000000000E+00 -0.77927868981E+02  0.77927868981E+02  0.00000000000E+00 0.  1.
       23    2    1    2    0    0  0.82479440833E+02  0.85549843128E+02  0.13795750547E+03  0.20334508988E+03  0.90527998123E+02 0.  0.
       23    2    1    2    0    0 -0.38444621917E+00  0.67905408892E+02  0.20831117106E+03  0.23646828778E+03  0.88951755354E+02 0.  0.
      -11    1    4    4    0    0  0.14593917183E+02 -0.99737215369E+01  0.52034720154E+01  0.18426439185E+02  0.00000000000E+00 0. -1.
       11    1    4    4    0    0 -0.14978363402E+02  0.77879130429E+02  0.20310769904E+03  0.21804184859E+03  0.00000000000E+00 0.  1.
      -13    1    3    3    0    0  0.72011979956E+02  0.78805157145E+02  0.56194175310E+02  0.12063897956E+03  0.00000000000E+00 0.  1.
       13    1    3    3    0    0  0.10467460877E+02  0.67446859826E+01  0.81763330158E+02  0.82706110323E+02  0.00000000000E+00 0. -1.
       21    1    1    2  502  501 -0.39556738056E+02  0.21000425031E+01  0.70856487162E+00  0.39618780500E+02  0.00000000000E+00 0.  1.
       21    1    1    2  503  502 -0.42538256558E+02 -0.15555529452E+03  0.54398421048E+03  0.56738503168E+03  0.00000000000E+00 0. -1.
<mgrwt>
<rscale>  2 0.15517280E+03</rscale>
<asrwt>0</asrwt>
<pdfrwt beam="1">  1        2 0.14905990E+00 0.17265271E+03</pdfrwt>
<pdfrwt beam="2">  1       -2 0.11988903E-01 0.17265271E+03</pdfrwt>
<totfact> 0.13598104E+03</totfact>
</mgrwt>
</event>
<event>
10   0  0.3368750E-06  0.1022507E+03  0.7546771E-02  0.1278341E+00
        1   -1    0    0  502    0  0.00000000000E+00  0.00000000000E+00  0.10486277623E+03  0.10486277623E+03  0.00000000000E+00 0. -1.
       -1   -1    0    0    0  501  0.00000000000E+00  0.00000000000E+00 -0.22776854869E+03  0.22776854869E+03  0.00000000000E+00 0.  1.
       23    2    1    2    0    0  0.96476712053E+01 -0.55696049281E+02 -0.11308454502E+03  0.15279012521E+03  0.85799653683E+02 0.  0.
       23    2    1    2    0    0  0.23938385957E+02  0.30409445519E+02  0.13132506066E+02  0.10030242342E+03  0.91598759430E+02 0.  0.
      -11    1    3    3    0    0 -0.13459403361E+02  0.73501905235E+01  0.56833638801E+01  0.16354860579E+02  0.00000000000E+00 0.  1.
       11    1    3    3    0    0  0.23107074566E+02 -0.63046239805E+02 -0.11876790890E+03  0.13643526463E+03  0.00000000000E+00 0. -1.
      -13    1    4    4    0    0  0.31447878758E+01  0.54343433208E+02 -0.16526050473E+02  0.56887685555E+02  0.00000000000E+00 0.  1.
       13    1    4    4    0    0  0.20793598082E+02 -0.23933987688E+02  0.29658556538E+02  0.43414737864E+02  0.00000000000E+00 0. -1.
       21    1    1    2  502  503  0.16120896371E+02  0.77051453629E+01  0.66579370892E+01  0.19067791984E+02  0.00000000000E+00 0. -1.
       21    1    1    2  503  501 -0.49706953534E+02  0.17581458399E+02 -0.29611670587E+02  0.60470984315E+02  0.00000000000E+00 0.  1.
<mgrwt>
<rscale>  2 0.10093539E+03</rscale>
<asrwt>0</asrwt>
<pdfrwt beam="1">  1        1 0.16132735E-01 0.10225074E+03</pdfrwt>
<pdfrwt beam="2">  1       -1 0.35041315E-01 0.10225074E+03</pdfrwt>
<totfact> 0.25226320E+03</totfact>
</mgrwt>
</event>
<event>
10   0  0.3368750E-06  0.1308927E+03  0.7546771E-02  0.1226222E+00
        2   -1    0    0  503    0  0.00000000000E+00  0.00000000000E+00  0.38468473413E+03  0.38468473413E+03  0.00000000000E+00 0. -1.
       21   -1    0    0  501  502  0.00000000000E+00  0.00000000000E+00 -0.92685238304E+02  0.92685238304E+02  0.00000000000E+00 0. -1.
       23    2    1    2    0    0 -0.95702617109E+02  0.60265874560E+02  0.15134167658E+03  0.20966812583E+03  0.90914538783E+02 0.  0.
       23    2    1    2    0    0  0.55267753772E+02 -0.55549122443E+02  0.81304222620E+02  0.14476092128E+03  0.90582106961E+02 0.  0.
      -11    1    4    4    0    0  0.70344502763E+02 -0.63601720225E+02  0.45710089121E+02  0.10527554385E+03  0.00000000000E+00 0.  1.
       11    1    4    4    0    0 -0.15076748992E+02  0.80525977817E+01  0.35594133499E+02  0.39485377430E+02  0.00000000000E+00 0. -1.
      -13    1    3    3    0    0 -0.88136377755E+02  0.54883288274E+02  0.16391863185E+03  0.19403482750E+03  0.00000000000E+00 0. -1.
       13    1    3    3    0    0 -0.75662393538E+01  0.53825862855E+01 -0.12576955266E+02  0.15633298335E+02  0.00000000000E+00 0.  1.
       21    1    1    2  503  502  0.25689993571E+02  0.36426005006E+01  0.86848366440E+02  0.90641508491E+02  0.00000000000E+00 0. -1.
        2    1    1    2  501    0  0.14744869766E+02 -0.83593526174E+01 -0.27494769816E+02  0.32299416834E+02  0.00000000000E+00 0. -1.
<mgrwt>
<rscale>  2 0.13083499E+03</rscale>
<asrwt>0</asrwt>
<pdfrwt beam="1">  1       21 0.14259267E-01 0.13089270E+03</pdfrwt>
<pdfrwt beam="2">  1        2 0.59182267E-01 0.13089270E+03</pdfrwt>
<totfact> 0.44632834E+04</totfact>
</mgrwt>
</event>
<event>
10   0  0.3368750E-06  0.9574164E+02  0.7546771E-02  0.1296813E+00
       -2   -1    0    0    0  501  0.00000000000E+00  0.00000000000E+00  0.11931881759E+03  0.11931881759E+03  0.00000000000E+00 0.  1.
        2   -1    0    0  503    0  0.00000000000E+00  0.00000000000E+00 -0.23427625812E+03  0.23427625812E+03  0.00000000000E+00 0. -1.
       23    2    1    2    0    0 -0.41933495972E+02  0.18423668835E+02 -0.72893549623E+02  0.11634128666E+03  0.78255835233E+02 0.  0.
       23    2    1    2    0    0 -0.28209008485E+02 -0.33391160113E+02 -0.44596396420E+02  0.11048419198E+03  0.91143844392E+02 0.  0.
      -11    1    3    3    0    0  0.20639531279E+00  0.20747320374E+02  0.10218117699E+02  0.23127988046E+02  0.00000000000E+00 0.  1.
       11    1    3    3    0    0 -0.42139891285E+02 -0.23236515390E+01 -0.83111667322E+02  0.93213298617E+02  0.00000000000E+00 0. -1.
      -13    1    4    4    0    0 -0.41968421363E+02  0.19371177139E+02 -0.24941180162E+02  0.52522884187E+02  0.00000000000E+00 0. -1.
       13    1    4    4    0    0  0.13759412878E+02 -0.52762337252E+02 -0.19655216258E+02  0.57961307794E+02  0.00000000000E+00 0.  1.
       21    1    1    2  502  501  0.84850325463E+02  0.62009896078E+01  0.33459068385E+02  0.91419578103E+02  0.00000000000E+00 0.  1.
       21    1    1    2  503  502 -0.14707821006E+02  0.87665016702E+01 -0.30926562867E+02  0.35350018968E+02  0.00000000000E+00 0.  1.
<mgrwt>
<rscale>  2 0.92540696E+02</rscale>
<asrwt>0</asrwt>
<pdfrwt beam="1">  1        2 0.36042501E-01 0.95741643E+02</pdfrwt>
<pdfrwt beam="2">  1       -2 0.18356741E-01 0.95741643E+02</pdfrwt>
<totfact> 0.33017839E+03</totfact>
</mgrwt>
</event>
<event>
10   0  0.3368750E-06  0.1925138E+03  0.7546771E-02  0.1174546E+00
       21   -1    0    0  501  502  0.00000000000E+00  0.00000000000E+00  0.31405172465E+03  0.31405172465E+03  0.00000000000E+00 0.  1.
        1   -1    0    0  503    0  0.00000000000E+00  0.00000000000E+00 -0.33805877333E+03  0.33805877333E+03  0.00000000000E+00 0. -1.
       23    2    1    2    0    0 -0.78577517985E+02 -0.62031921333E+02  0.17550011684E+02  0.13771816308E+03  0.92929564374E+02 0.  0.
       23    2    1    2    0    0  0.67922946304E+02  0.69720744714E+02 -0.25332289940E+03  0.28627834255E+03  0.91149817197E+02 0.  0.
      -11    1    4    4    0    0  0.73324788602E+02  0.87785645875E+02 -0.22149079373E+03  0.24928099798E+03  0.00000000000E+00 0.  1.
       11    1    4    4    0    0 -0.54018422975E+01 -0.18064901161E+02 -0.31832105671E+02  0.36997344575E+02  0.00000000000E+00 0. -1.
      -13    1    3    3    0    0 -0.43408706045E+02 -0.79812809877E+02  0.31125136618E+02  0.96037359972E+02  0.00000000000E+00 0.  1.
       13    1    3    3    0    0 -0.35168811940E+02  0.17780888544E+02 -0.13575124934E+02  0.41680803107E+02  0.00000000000E+00 0. -1.
       21    1    1    2  503  502  0.15895928844E+02  0.13781744261E+02  0.20339596287E+03  0.20448113542E+03  0.00000000000E+00 0.  1.
        1    1    1    2  501    0 -0.52413571630E+01 -0.21470567642E+02  0.83698761662E+01  0.23632856933E+02  0.00000000000E+00 0. -1.
<mgrwt>
<rscale>  2 0.17320499E+03</rscale>
<asrwt>0</asrwt>
<pdfrwt beam="1">  1       21 0.48315650E-01 0.19251375E+03</pdfrwt>
<pdfrwt beam="2">  1        1 0.52009042E-01 0.19251375E+03</pdfrwt>
<totfact> 0.33743402E+03</totfact>
</mgrwt>
</event>
<event>
10   0  0.3368750E-06  0.2611372E+03  0.7546771E-02  0.1129868E+00
        2   -1    0    0  501    0  0.00000000000E+00  0.00000000000E+00  0.14161281748E+04  0.14161281748E+04  0.00000000000E+00 0. -1.
       -2   -1    0    0    0  501  0.00000000000E+00  0.00000000000E+00 -0.20627575040E+03  0.20627575040E+03  0.00000000000E+00 0. -1.
       23    2    1    2    0    0  0.90772025770E+02 -0.35838804781E+02  0.17113615995E+03  0.21780931638E+03  0.92894200401E+02 0.  0.
       23    2    1    2    0    0 -0.61966234818E+02  0.22572747777E+02  0.11429854691E+04  0.11484490410E+04  0.90388461540E+02 0.  0.
      -11    1    3    3    0    0  0.82618502015E+02  0.13061740637E+02  0.91210769153E+02  0.12375714264E+03  0.00000000000E+00 0.  1.
       11    1    3    3    0    0  0.81535237546E+01 -0.48900545418E+02  0.79925390794E+02  0.94052173741E+02  0.00000000000E+00 0. -1.
      -13    1    4    4    0    0 -0.61054654554E+02 -0.23778112977E+02  0.67647436616E+03  0.67964007943E+03  0.00000000000E+00 0. -1.
       13    1    4    4    0    0 -0.91158026312E+00  0.46350860754E+02  0.46651110293E+03  0.46880896155E+03  0.00000000000E+00 0.  1.
        2    1    1    2  502    0 -0.58443173279E+02 -0.72714934959E+01  0.62292647517E+02  0.85725451619E+02  0.00000000000E+00 0. -1.
       -2    1    1    2    0  502  0.29637382327E+02  0.20537550500E+02 -0.16656185217E+03  0.17042011621E+03  0.00000000000E+00 0. -1.
<mgrwt>
<rscale>  2 0.22547170E+03</rscale>
<asrwt>0</asrwt>
<pdfrwt beam="1">  1        2 0.21786587E+00 0.26113717E+03</pdfrwt>
<pdfrwt beam="2">  1       -2 0.31734731E-01 0.26113717E+03</pdfrwt>
<totfact> 0.14151788E+02</totfact>
</mgrwt>
</event>
<event>
10   0  0.3368750E-06  0.1116017E+03  0.7546771E-02  0.1259194E+00
        2   -1    0    0  503    0  0.00000000000E+00  0.00000000000E+00  0.21858038311E+04  0.21858038311E+04  0.00000000000E+00 0. -1.
       -2   -1    0    0    0  501  0.00000000000E+00  0.00000000000E+00 -0.10209280190E+03  0.10209280190E+03  0.00000000000E+00 0.  1.
       23    2    1    2    0    0  0.36597237515E+02  0.52859937191E+02 -0.67443916692E+02  0.13038548000E+03  0.91203951355E+02 0.  0.
       23    2    1    2    0    0 -0.47769992093E+02 -0.47026547087E+02  0.19426996809E+04  0.19458031875E+04  0.87031752403E+02 0.  0.
      -11    1    4    4    0    0 -0.34332974302E+01 -0.27685131860E+02  0.15771976416E+03  0.16016796829E+03  0.00000000000E+00 0.  1.
       11    1    4    4    0    0 -0.44336694663E+02 -0.19341415227E+02  0.17849799167E+04  0.17856352192E+04  0.00000000000E+00 0. -1.
      -13    1    3    3    0    0 -0.57240410884E+01 -0.17714888922E+02 -0.39175518471E+02  0.43373992016E+02  0.00000000000E+00 0.  1.
       13    1    3    3    0    0  0.42321278603E+02  0.70574826113E+02 -0.28268398221E+02  0.87011487985E+02  0.00000000000E+00 0. -1.
       21    1    1    2  502  501  0.22432157109E+02 -0.73626486504E+01  0.10451607800E+03  0.10714952556E+03  0.00000000000E+00 0.  1.
       21    1    1    2  503  502 -0.11259402531E+02  0.15292585472E+01  0.10393918699E+03  0.10455843997E+03  0.00000000000E+00 0. -1.
<mgrwt>
<rscale>  2 0.11074616E+03</rscale>
<asrwt>0</asrwt>
<pdfrwt beam="1">  1        2 0.33627751E+00 0.11160168E+03</pdfrwt>
<pdfrwt beam="2">  1       -2 0.15706585E-01 0.11160168E+03</pdfrwt>
<totfact> 0.20106608E+02</totfact>
</mgrwt>
</event>
<event>
10   0  0.3368750E-06  0.1450271E+03  0.7546771E-02  0.1231779E+00
        1   -1    0    0  502    0  0.00000000000E+00  0.00000000000E+00  0.64898846154E+03  0.64898846154E+03  0.00000000000E+00 0. -1.
       21   -1    0    0  503  502  0.00000000000E+00  0.00000000000E+00 -0.87656434508E+02  0.87656434508E+02  0.00000000000E+00 0. -1.
       23    2    1    2    0    0 -0.53790359892E+02  0.30397318378E+02  0.10892223218E+03  0.13855188348E+03  0.59288885729E+02 0.  0.
       23    2    1    2    0    0  0.40038323271E+02  0.87360011036E+02  0.45896341067E+03  0.47723572828E+03  0.88722540274E+02 0.  0.
      -11    1    4    4    0    0  0.35708639489E+02 -0.17694485171E+01  0.20396269749E+03  0.20707249902E+03  0.00000000000E+00 0.  1.
       11    1    4    4    0    0  0.43296837814E+01  0.89129459553E+02  0.25500071318E+03  0.27016322926E+03  0.00000000000E+00 0. -1.
      -13    1    3    3    0    0 -0.61410832527E+02  0.39311754596E+02  0.85591190744E+02  0.11243912279E+03  0.00000000000E+00 0.  1.
       13    1    3    3    0    0  0.76204726356E+01 -0.89144362186E+01  0.23331041439E+02  0.26112760691E+02  0.00000000000E+00 0. -1.
       21    1    1    2  503  501  0.79621520601E+01 -0.25892858113E+02  0.65831362408E+01  0.27877834375E+02  0.00000000000E+00 0. -1.
        1    1    1    2  501    0  0.57898845611E+01 -0.91864471301E+02 -0.13136752065E+02  0.92979449909E+02  0.00000000000E+00 0. -1.
<mgrwt>
<rscale>  2 0.12712877E+03</rscale>
<asrwt>0</asrwt>
<pdfrwt beam="1">  1       21 0.13485605E-01 0.14502708E+03</pdfrwt>
<pdfrwt beam="2">  1        1 0.99844379E-01 0.14502708E+03</pdfrwt>
<totfact> 0.16786170E+04</totfact>
</mgrwt>
</event>
<event>
10   0  0.3368750E-06  0.1381408E+03  0.7546771E-02  0.1216153E+00
        3   -1    0    0  502    0  0.00000000000E+00  0.00000000000E+00  0.12744621898E+03  0.12744621898E+03  0.00000000000E+00 0. -1.
       -3   -1    0    0    0  501  0.00000000000E+00  0.00000000000E+00 -0.30802579868E+03  0.30802579868E+03  0.00000000000E+00 0.  1.
       23    2    1    2    0    0 -0.95515453233E+02 -0.56160995430E+02 -0.14797753635E+03  0.20801856961E+03  0.95378796519E+02 0.  0.
       23    2    1    2    0    0  0.79433531914E+02  0.34726699139E+02  0.42108693570E+02  0.13470479329E+03  0.94109561868E+02 0.  0.
      -11    1    3    3    0    0 -0.82419382803E+02  0.42495011794E+01 -0.67980157911E+02  0.10692200331E+03  0.00000000000E+00 0.  1.
       11    1    3    3    0    0 -0.13096070430E+02 -0.60410496609E+02 -0.79997378440E+02  0.10109656630E+03  0.00000000000E+00 0. -1.
      -13    1    4    4    0    0  0.91017858751E+01  0.52001699331E+02  0.41949089254E+01  0.52958630084E+02  0.00000000000E+00 0.  1.
       13    1    4    4    0    0  0.70331746039E+02 -0.17275000192E+02  0.37913784645E+02  0.81746163204E+02  0.00000000000E+00 0. -1.
       21    1    1    2  502  503  0.45854214758E+01  0.22117640257E+02 -0.64045578391E+01  0.23478382861E+02  0.00000000000E+00 0.  1.
       21    1    1    2  503  501  0.11496499843E+02 -0.68334396681E+00 -0.68306179083E+02  0.69270271896E+02  0.00000000000E+00 0. -1.
<mgrwt>
<rscale>  2 0.13792195E+03</rscale>
<asrwt>0</asrwt>
<pdfrwt beam="1">  1        3 0.19607111E-01 0.13814079E+03</pdfrwt>
<pdfrwt beam="2">  1       -3 0.47388584E-01 0.13814079E+03</pdfrwt>
<totfact> 0.24185952E+02</totfact>
</mgrwt>
</event>
<event>
10   0  0.3368750E-06  0.1425971E+03  0.7546771E-02  0.1211193E+00
       21   -1    0    0  501  502  0.00000000000E+00  0.00000000000E+00  0.41588507950E+02  0.41588507950E+02  0.00000000000E+00 0. -1.
        2   -1    0    0  503    0  0.00000000000E+00  0.00000000000E+00 -0.15919973241E+04  0.15919973241E+04  0.00000000000E+00 0. -1.
       23    2    1    2    0    0  0.11318899628E+03 -0.25174242525E+02 -0.21198937776E+03  0.25634140147E+03  0.85591626101E+02 0.  0.
       23    2    1    2    0    0 -0.12329116982E+03  0.20430237532E+02 -0.71435896617E+03  0.73100159282E+03  0.91850361987E+02 0.  0.
      -11    1    4    4    0    0 -0.85531155406E+02  0.54152168046E+02 -0.40107485058E+03  0.41365332298E+03  0.00000000000E+00 0.  1.
       11    1    4    4    0    0 -0.37760014417E+02 -0.33721930514E+02 -0.31328411559E+03  0.31734826984E+03  0.00000000000E+00 0. -1.
      -13    1    3    3    0    0  0.20912132742E+02  0.17819061298E+02 -0.84182395813E+01  0.28735048269E+02  0.00000000000E+00 0.  1.
       13    1    3    3    0    0  0.92276863539E+02 -0.42993303823E+02 -0.20357113818E+03  0.22760635320E+03  0.00000000000E+00 0. -1.
       21    1    1    2  503  502  0.26340999607E+02 -0.28848425640E+01 -0.62742858176E+03  0.62798789462E+03  0.00000000000E+00 0. -1.
        2    1    1    2  501    0 -0.16238826065E+02  0.76288475567E+01  0.33681095449E+01  0.18254943137E+02  0.00000000000E+00 0. -1.
<mgrwt>
<rscale>  2 0.14159945E+03</rscale>
<asrwt>0</asrwt>
<pdfrwt beam="1">  1       21 0.63982320E-02 0.14259705E+03</pdfrwt>
<pdfrwt beam="2">  1        2 0.24492267E+00 0.14259705E+03</pdfrwt>
<totfact> 0.28087799E+04</totfact>
</mgrwt>
</event>
<event>
10   0  0.3368750E-06  0.2190596E+03  0.7546771E-02  0.1156440E+00
        2   -1    0    0  502    0  0.00000000000E+00  0.00000000000E+00  0.14670553070E+04  0.14670553070E+04  0.00000000000E+00 0.  1.
        4   -1    0    0  501    0  0.00000000000E+00  0.00000000000E+00 -0.44666599686E+02  0.44666599686E+02  0.00000000000E+00 0. -1.
       23    2    1    2    0    0 -0.67543349657E+02 -0.54784414221E+02  0.22883436056E+03  0.26059116308E+03  0.89326108048E+02 0.  0.
       23    2    1    2    0    0  0.10789629550E+03  0.68672028392E+02  0.17672478931E+03  0.23231558056E+03  0.79883789032E+02 0.  0.
      -11    1    4    4    0    0 -0.66606278523E+01 -0.78360231765E+01  0.32254692999E+01  0.10778259359E+02  0.00000000000E+00 0.  1.
       11    1    4    4    0    0  0.11455692335E+03  0.76508051568E+02  0.17349932001E+03  0.22153732120E+03  0.00000000000E+00 0. -1.
      -13    1    3    3    0    0 -0.57819920315E+02 -0.69228967012E+01  0.18837374201E+03  0.19716930888E+03  0.00000000000E+00 0.  1.
       13    1    3    3    0    0 -0.97234293424E+01 -0.47861517520E+02  0.40460618552E+02  0.63421854207E+02  0.00000000000E+00 0. -1.
        2    1    1    2  501    0 -0.12316466993E+02 -0.17910855994E+02  0.77926625053E+03  0.77956935761E+03  0.00000000000E+00 0.  1.
        4    1    1    2  502    0 -0.28036478848E+02  0.40232418234E+01  0.23756330693E+03  0.23924580544E+03  0.00000000000E+00 0. -1.
<mgrwt>
<rscale>  2 0.19225815E+03</rscale>
<asrwt>0</asrwt>
<pdfrwt beam="1">  1        2 0.22570082E+00 0.21905956E+03</pdfrwt>
<pdfrwt beam="2">  1        4 0.68717846E-02 0.21905956E+03</pdfrwt>
<totfact> 0.10996940E+03</totfact>
</mgrwt>
</event>
<event>
10   0  0.3368750E-06  0.1528257E+03  0.7546771E-02  0.1197142E+00
        2   -1    0    0  503    0  0.00000000000E+00  0.00000000000E+00  0.10650724572E+04  0.10650724572E+04  0.00000000000E+00 0. -1.
       -2   -1    0    0    0  501  0.00000000000E+00  0.00000000000E+00 -0.36924919412E+02  0.36924919412E+02  0.00000000000E+00 0.  1.
       23    2    1    2    0    0 -0.65244055284E+02  0.12482723332E+03  0.32915868829E+03  0.36953701869E+03  0.91507055360E+02 0.  0.
       23    2    1    2    0    0  0.51717889175E+00 -0.10493614932E+03  0.49121684327E+03  0.51046879546E+03  0.90953510768E+02 0.  0.
      -11    1    4    4    0    0 -0.25666889774E+02 -0.13840769490E+01  0.46775110921E+02  0.53372426414E+02  0.00000000000E+00 0.  1.
       11    1    4    4    0    0  0.26184068665E+02 -0.10355207237E+03  0.44444173235E+03  0.45709636905E+03  0.00000000000E+00 0. -1.
      -13    1    3    3    0    0 -0.54342269248E+02  0.10289042034E+03  0.15579949838E+03  0.19445566210E+03  0.00000000000E+00 0.  1.
       13    1    3    3    0    0 -0.10901786036E+02  0.21936812974E+02  0.17335918991E+03  0.17508135660E+03  0.00000000000E+00 0. -1.
       21    1    1    2  502  501  0.25731984418E+02  0.69248582930E+01  0.43267948430E+02  0.50815391820E+02  0.00000000000E+00 0.  1.
       21    1    1    2  503  502  0.38994891974E+02 -0.26815942294E+02  0.16450405777E+03  0.17117617061E+03  0.00000000000E+00 0. -1.
<mgrwt>
<rscale>  2 0.15274297E+03</rscale>
<asrwt>0</asrwt>
<pdfrwt beam="1">  1        2 0.16385730E+00 0.15282574E+03</pdfrwt>
<pdfrwt beam="2">  1       -2 0.56807568E-02 0.15282574E+03</pdfrwt>
<totfact> 0.38034229E+03</totfact>
</mgrwt>
</event>
<event>
10   0  0.3368750E-06  0.9476538E+02  0.7546771E-02  0.1296146E+00
        1   -1    0    0  503    0  0.00000000000E+00  0.00000000000E+00  0.11520782973E+03  0.11520782973E+03  0.00000000000E+00 0. -1.
       21   -1    0    0  501  502  0.00000000000E+00  0.00000000000E+00 -0.85171014478E+03  0.85171014478E+03  0.00000000000E+00 0. -1.
       23    2    1    2    0    0 -0.70356478729E+01 -0.27125731641E+01  0.89527112454E+01  0.83466459285E+02  0.82641638372E+02 0.  0.
       23    2    1    2    0    0  0.35068810662E+02  0.12772904995E+02 -0.59320138209E+02  0.11449831879E+03  0.90542904883E+02 0.  0.
      -11    1    4    4    0    0  0.26393554899E+02 -0.32767150506E+02 -0.39154324789E+01  0.42256792401E+02  0.00000000000E+00 0. -1.
       11    1    4    4    0    0  0.86752557627E+01  0.45540055501E+02 -0.55404705730E+02  0.72241526386E+02  0.00000000000E+00 0.  1.
      -13    1    3    3    0    0  0.17495018361E+02  0.25133291278E+02  0.28228828031E+02  0.41648826273E+02  0.00000000000E+00 0.  1.
       13    1    3    3    0    0 -0.24530666234E+02 -0.27845864442E+02 -0.19276116786E+02  0.41817633012E+02  0.00000000000E+00 0. -1.
       21    1    1    2  503  502 -0.29865516584E+02 -0.23731573800E+02  0.32543799088E+02  0.50142153273E+02  0.00000000000E+00 0.  1.
        1    1    1    2  501    0  0.18323537943E+01  0.13671241969E+02 -0.71867868717E+03  0.71881104316E+03  0.00000000000E+00 0. -1.
<mgrwt>
<rscale>  2 0.92827224E+02</rscale>
<asrwt>0</asrwt>
<pdfrwt beam="1">  1       21 0.13103233E+00 0.94765385E+02</pdfrwt>
<pdfrwt beam="2">  1        1 0.17724281E-01 0.94765385E+02</pdfrwt>
<totfact> 0.14458566E+03</totfact>
</mgrwt>
</event>
<event>
10   0  0.3368750E-06  0.1451688E+03  0.7546771E-02  0.1217380E+00
       -4   -1    0    0    0  501  0.00000000000E+00  0.00000000000E+00  0.61514243839E+03  0.61514243839E+03  0.00000000000E+00 0.  1.
       21   -1    0    0  503  502  0.00000000000E+00  0.00000000000E+00 -0.98245414281E+02  0.98245414281E+02  0.00000000000E+00 0. -1.
       23    2    1    2    0    0  0.21690007287E+02 -0.61303537080E+02  0.27375247787E+03  0.29619213571E+03  0.92524494270E+02 0.  0.
       23    2    1    2    0    0 -0.35706716209E+02  0.54436752585E+02  0.31290170743E+03  0.33430361061E+03  0.98046396860E+02 0.  0.
      -11    1    4    4    0    0  0.20969695777E+02  0.57223148695E+02  0.16319354120E+03  0.17420203437E+03  0.00000000000E+00 0. -1.
       11    1    4    4    0    0 -0.56676411986E+02 -0.27863961103E+01  0.14970816623E+03  0.16010157624E+03  0.00000000000E+00 0.  1.
      -13    1    3    3    0    0  0.31883775518E+01 -0.75128195565E+02  0.25668883459E+03  0.26747629675E+03  0.00000000000E+00 0.  1.
       13    1    3    3    0    0  0.18501629735E+02  0.13824658485E+02  0.17063643285E+02  0.28715838961E+02  0.00000000000E+00 0. -1.
       21    1    1    2  503  501  0.12726249211E+02 -0.48980391730E+01 -0.69735977825E+02  0.71056701373E+02  0.00000000000E+00 0. -1.
       -4    1    1    2    0  502  0.12904597120E+01  0.11764823668E+02 -0.21183374907E-01  0.11835404976E+02  0.00000000000E+00 0.  1.
<mgrwt>
<rscale>  2 0.13703160E+03</rscale>
<asrwt>0</asrwt>
<pdfrwt beam="1">  1       21 0.15114679E-01 0.14516883E+03</pdfrwt>
<pdfrwt beam="2">  1       -4 0.94637298E-01 0.14516883E+03</pdfrwt>
<totfact> 0.15658059E+03</totfact>
</mgrwt>
</event>
<event>
10   0  0.3368750E-06  0.4784696E+03  0.7546771E-02  0.1019557E+00
       21   -1    0    0  501  502  0.00000000000E+00  0.00000000000E+00  0.25314460214E+03  0.25314460214E+03  0.00000000000E+00 0.  1.
        2   -1    0    0  503    0  0.00000000000E+00  0.00000000000E+00 -0.14050115446E+04  0.14050115446E+04  0.00000000000E+00 0. -1.
       23    2    1    2    0    0 -0.13932625737E+03 -0.54411313092E+02 -0.22252107916E+03  0.28336213699E+03  0.91684638972E+02 0.  0.
       23    2    1    2    0    0  0.75395679203E+02  0.91631226501E+02 -0.10732993792E+04  0.10836006064E+04  0.90210457601E+02 0.  0.
      -11    1    3    3    0    0 -0.11147950310E+03 -0.69196983095E+01 -0.10372125599E+03  0.15242591899E+03  0.00000000000E+00 0.  1.
       11    1    3    3    0    0 -0.27846754265E+02 -0.47491614782E+02 -0.11879982317E+03  0.13093621800E+03  0.00000000000E+00 0. -1.
      -13    1    4    4    0    0  0.31529738893E+02  0.98690213364E+02 -0.80643483381E+03  0.81306274286E+03  0.00000000000E+00 0. -1.
       13    1    4    4    0    0  0.43865940310E+02 -0.70589868630E+01 -0.26686454538E+03  0.27053786351E+03  0.00000000000E+00 0.  1.
       21    1    1    2  503  502  0.27138149709E+02 -0.25086057193E+02  0.21075498158E+03  0.21397067953E+03  0.00000000000E+00 0.  1.
        2    1    1    2  501    0  0.36792428453E+02 -0.12133856216E+02 -0.66801465667E+02  0.77222723815E+02  0.00000000000E+00 0. -1.
<mgrwt>
<rscale>  2 0.47846960E+03</rscale>
<asrwt>0</asrwt>
<pdfrwt beam="1">  1       21 0.38945323E-01 0.47846960E+03</pdfrwt>
<pdfrwt beam="2">  1        2 0.21615562E+00 0.47846960E+03</pdfrwt>
<totfact> 0.11233802E+03</totfact>
</mgrwt>
</event>
<event>
10   0  0.3368750E-06  0.1195901E+03  0.7546771E-02  0.1246146E+00
        2   -1    0    0  502    0  0.00000000000E+00  0.00000000000E+00  0.90947806898E+03  0.90947806898E+03  0.00000000000E+00 0. -1.
       -2   -1    0    0    0  501  0.00000000000E+00  0.00000000000E+00 -0.76088812109E+02  0.76088812109E+02  0.00000000000E+00 0.  1.
       23    2    1    2    0    0  0.26263817391E+02  0.33901716799E+02  0.50078907309E+02  0.12595968318E+03  0.10732581387E+03 0.  0.
       23    2    1    2    0    0 -0.24773415407E+02 -0.46115175674E+02  0.55369018213E+03  0.56526896044E+03  0.10107347980E+03 0.  0.
      -11    1    3    3    0    0  0.13022478039E+02 -0.39169112476E+02  0.19454346144E+02  0.45631961280E+02  0.00000000000E+00 0. -1.
       11    1    3    3    0    0  0.13241339352E+02  0.73070829275E+02  0.30624561165E+02  0.80327721898E+02  0.00000000000E+00 0.  1.
      -13    1    4    4    0    0  0.15827764152E+02 -0.14285056689E+02  0.20463249330E+02  0.29552081751E+02  0.00000000000E+00 0.  1.
       13    1    4    4    0    0 -0.40601179559E+02 -0.31830118985E+02  0.53322693280E+03  0.53571687869E+03  0.00000000000E+00 0. -1.
       21    1    1    2  502  503  0.23592777655E+02 -0.11063808671E+02  0.25206886486E+03  0.25341219318E+03  0.00000000000E+00 0. -1.
       21    1    1    2  503  501 -0.25083179639E+02  0.23277267546E+02 -0.22448697424E+02  0.40926044290E+02  0.00000000000E+00 0.  1.
<mgrwt>
<rscale>  2 0.11817062E+03</rscale>
<asrwt>0</asrwt>
<pdfrwt beam="1">  1        2 0.13991970E+00 0.11959014E+03</pdfrwt>
<pdfrwt beam="2">  1       -2 0.11705971E-01 0.11959014E+03</pdfrwt>
<totfact> 0.15330382E+03</totfact>
</mgrwt>
</event>
<event>
10   0  0.3368750E-06  0.1200795E+03  0.7546771E-02  0.1243874E+00
       -1   -1    0    0    0  501  0.00000000000E+00  0.00000000000E+00  0.58167554118E+03  0.58167554118E+03  0.00000000000E+00 0.  1.
       21   -1    0    0  503  502  0.00000000000E+00  0.00000000000E+00 -0.69148775263E+02  0.69148775263E+02  0.00000000000E+00 0.  1.
       23    2    1    2    0    0  0.65727836409E+02 -0.53156229248E+02  0.44756075752E+03  0.46400753854E+03  0.88581211100E+02 0.  0.
       23    2    1    2    0    0 -0.47603437172E+02  0.31423512553E+02  0.87648938131E+02  0.13893023484E+03  0.91464470835E+02 0.  0.
      -11    1    3    3    0    0  0.51960557161E+02 -0.15867173032E+01  0.33978669843E+03  0.34374033455E+03  0.00000000000E+00 0.  1.
       11    1    3    3    0    0  0.13767279248E+02 -0.51569511944E+02  0.10777405909E+03  0.12026720398E+03  0.00000000000E+00 0. -1.
      -13    1    4    4    0    0  0.18508577195E+02 -0.13600555183E+02  0.39144356086E+02  0.45385274534E+02  0.00000000000E+00 0.  1.
       13    1    4    4    0    0 -0.66112014367E+02  0.45024067735E+02  0.48504582045E+02  0.93544960305E+02  0.00000000000E+00 0. -1.
       21    1    1    2  503  501 -0.15263577270E+02  0.84567947505E+01  0.40394620508E+01  0.17911209400E+02  0.00000000000E+00 0. -1.
       -1    1    1    2    0  502 -0.28608219675E+01  0.13275921944E+02 -0.26722391785E+02  0.29975333668E+02  0.00000000000E+00 0.  1.
<mgrwt>
<rscale>  2 0.11953035E+03</rscale>
<asrwt>0</asrwt>
<pdfrwt beam="1">  1       21 0.10638273E-01 0.12007945E+03</pdfrwt>
<pdfrwt beam="2">  1       -1 0.89488545E-01 0.12007945E+03</pdfrwt>
<totfact> 0.88236705E+03</totfact>
</mgrwt>
</event>
<event>
10   0  0.3368750E-06  0.2689841E+03  0.7546771E-02  0.1110359E+00
        1   -1    0    0  501    0  0.00000000000E+00  0.00000000000E+00  0.15660915930E+04  0.15660915930E+04  0.00000000000E+00 0.  1.
       -1   -1    0    0    0  501  0.00000000000E+00  0.00000000000E+00 -0.10800346087E+03  0.10800346087E+03  0.00000000000E+00 0.  1.
       23    2    1    2    0    0  0.15579548624E+03  0.11646306344E+03  0.38685443604E+02  0.21848547661E+03  0.91670394707E+02 0.  0.
       23    2    1    2    0    0 -0.16335114594E+02 -0.73404124067E+02  0.40697420542E+03  0.42410838459E+03  0.92654825045E+02 0.  0.
      -11    1    3    3    0    0  0.54109170819E+02  0.92516358717E+02  0.26964164491E+00  0.10717813072E+03  0.00000000000E+00 0.  1.
       11    1    3    3    0    0  0.10168631542E+03  0.23946704725E+02  0.38415801959E+02  0.11130734590E+03  0.00000000000E+00 0. -1.
      -13    1    4    4    0    0 -0.10618741915E+01 -0.17455020721E+02  0.31427807048E+03  0.31476421478E+03  0.00000000000E+00 0. -1.
       13    1    4    4    0    0 -0.15273240403E+02 -0.55949103346E+02  0.92696134944E+02  0.10934416981E+03  0.00000000000E+00 0.  1.
        1    1    1    2  502    0  0.81542061378E+01  0.10939513702E+02  0.36539624499E+03  0.36565089894E+03  0.00000000000E+00 0.  1.
       -1    1    1    2    0  502 -0.14761457778E+03 -0.53998453077E+02  0.64703223814E+03  0.66585029376E+03  0.00000000000E+00 0.  1.
<mgrwt>
<rscale>  2 0.25471827E+03</rscale>
<asrwt>0</asrwt>
<pdfrwt beam="1">  1        1 0.24093717E+00 0.26898415E+03</pdfrwt>
<pdfrwt beam="2">  1       -1 0.16615917E-01 0.26898415E+03</pdfrwt>
<totfact> 0.17763658E+02</totfact>
</mgrwt>
</event>
<event>
10   0  0.3368750E-06  0.8930232E+02  0.7546771E-02  0.1325317E+00
       21   -1    0    0  503  502  0.00000000000E+00  0.00000000000E+00  0.62665797639E+03  0.62665797639E+03  0.00000000000E+00 0.  1.
       -4   -1    0    0    0  501  0.00000000000E+00  0.00000000000E+00 -0.23305098732E+02  0.23305098732E+02  0.00000000000E+00 0.  1.
       23    2    1    2    0    0 -0.47443387299E+02  0.27148277507E+02  0.20035711026E+03  0.22527836798E+03  0.87289561097E+02 0.  0.
       23    2    1    2    0    0  0.21505576187E+01  0.14760532132E+02  0.15981580734E+03  0.17082948045E+03  0.58473249521E+02 0.  0.
      -11    1    3    3    0    0 -0.76273154344E+01 -0.30857769668E+02  0.49586744898E+02  0.58900111708E+02  0.00000000000E+00 0.  1.
       11    1    3    3    0    0 -0.39816071865E+02  0.58006047176E+02  0.15077036536E+03  0.16637825627E+03  0.00000000000E+00 0. -1.
      -13    1    4    4    0    0 -0.26227449494E+02  0.65474194645E+01  0.47097123105E+02  0.54303653776E+02  0.00000000000E+00 0.  1.
       13    1    4    4    0    0  0.28378007113E+02  0.82131126674E+01  0.11271868423E+03  0.11652582668E+03  0.00000000000E+00 0. -1.
       21    1    1    2  503  501  0.25938696627E+02 -0.32696464272E+02  0.90282238023E+02  0.99462340919E+02  0.00000000000E+00 0. -1.
       -4    1    1    2    0  502  0.19354133053E+02 -0.92123453671E+01  0.15289772204E+03  0.15439288577E+03  0.00000000000E+00 0.  1.
<mgrwt>
<rscale>  2 0.81330856E+02</rscale>
<asrwt>0</asrwt>
<pdfrwt beam="1">  1       21 0.96408919E-01 0.89302324E+02</pdfrwt>
<pdfrwt beam="2">  1       -4 0.35853998E-02 0.89302324E+02</pdfrwt>
<totfact> 0.14538985E+04</totfact>
</mgrwt>
</event>
<event>
10   0  0.3368750E-06  0.2215417E+03  0.7546771E-02  0.1156808E+00
       21   -1    0    0  503  502  0.00000000000E+00  0.00000000000E+00  0.55727995965E+03  0.55727995965E+03  0.00000000000E+00 0.  1.
       -4   -1    0    0    0  501  0.00000000000E+00  0.00000000000E+00 -0.60882278600E+03  0.60882278600E+03  0.00000000000E+00 0.  1.
       23    2    1    2    0    0 -0.79361225910E+02 -0.30096510972E+02 -0.36915155749E+03  0.38960455539E+03  0.91185706302E+02 0.  0.
       23    2    1    2    0    0 -0.46384054449E+02  0.70252117216E+02 -0.15263080798E+03  0.19617443519E+03  0.90007805197E+02 0.  0.
      -11    1    3    3    0    0 -0.93733681201E+02 -0.29738688312E+02 -0.35841586615E+03  0.37166157412E+03  0.00000000000E+00 0.  1.
       11    1    3    3    0    0  0.14372455291E+02 -0.35782266040E+00 -0.10735691342E+02  0.17942981267E+02  0.00000000000E+00 0. -1.
      -13    1    4    4    0    0 -0.26150344737E+02  0.14740137240E+02 -0.12915391028E+03  0.13259654866E+03  0.00000000000E+00 0.  1.
       13    1    4    4    0    0 -0.20233709712E+02  0.55511979976E+02 -0.23476897696E+02  0.63577886525E+02  0.00000000000E+00 0. -1.
       21    1    1    2  503  501  0.17024861032E+03 -0.17509968112E+02  0.49559996130E+03  0.52431909172E+03  0.00000000000E+00 0.  1.
       -4    1    1    2    0  502 -0.44503329961E+02 -0.22645638132E+02 -0.25360422184E+02  0.56004663354E+02  0.00000000000E+00 0.  1.
<mgrwt>
<rscale>  2 0.19184436E+03</rscale>
<asrwt>0</asrwt>
<pdfrwt beam="1">  1       21 0.85735378E-01 0.22154171E+03</pdfrwt>
<pdfrwt beam="2">  1       -4 0.93665044E-01 0.22154171E+03</pdfrwt>
<totfact> 0.48667128E+01</totfact>
</mgrwt>
</event>
<event>
10   0  0.3368750E-06  0.1178498E+03  0.7546771E-02  0.1254190E+00
       -1   -1    0    0    0  501  0.00000000000E+00  0.00000000000E+00  0.56358316156E+02  0.56358316156E+02  0.00000000000E+00 0.  1.
       21   -1    0    0  501  502  0.00000000000E+00  0.00000000000E+00 -0.36931661764E+03  0.36931661764E+03  0.00000000000E+00 0. -1.
       23    2    1    2    0    0 -0.20746780474E+02 -0.41156173169E+01 -0.81946518140E+02  0.12588308557E+03  0.93187725539E+02 0.  0.
       23    2    1    2    0    0  0.54745664364E+02 -0.26190984798E+02 -0.19468058031E+03  0.23208384445E+03  0.11081212504E+03 0.  0.
      -11    1    4    4    0    0  0.37377875655E+02  0.36979380216E+02 -0.46999761037E+02  0.70523454872E+02  0.00000000000E+00 0.  1.
       11    1    4    4    0    0  0.17367788709E+02 -0.63170365014E+02 -0.14768081927E+03  0.16156038958E+03  0.00000000000E+00 0. -1.
      -13    1    3    3    0    0 -0.32759506930E+02  0.38698389560E+02 -0.49290243238E+02  0.70712648991E+02  0.00000000000E+00 0.  1.
       13    1    3    3    0    0  0.12012726456E+02 -0.42814006876E+02 -0.32656274901E+02  0.55170436578E+02  0.00000000000E+00 0. -1.
       21    1    1    2  503  502 -0.26790426110E+02  0.37329378733E+02 -0.24152096708E+02  0.51908893488E+02  0.00000000000E+00 0.  1.
       -1    1    1    2    0  503 -0.72084577789E+01 -0.70227766175E+01 -0.12179106330E+02  0.15799110291E+02  0.00000000000E+00 0.  1.
<mgrwt>
<rscale>  2 0.11351813E+03</rscale>
<asrwt>0</asrwt>
<pdfrwt beam="1">  1       21 0.56817941E-01 0.11784975E+03</pdfrwt>
<pdfrwt beam="2">  1       -1 0.86705102E-02 0.11784975E+03</pdfrwt>
<totfact> 0.19720415E+04</totfact>
</mgrwt>
</event>
<event>
10   0  0.3368750E-06  0.1109292E+03  0.7546771E-02  0.1259026E+00
       -1   -1    0    0    0  501  0.00000000000E+00  0.00000000000E+00  0.34901276010E+02  0.34901276010E+02  0.00000000000E+00 0.  1.
        1   -1    0    0  503    0  0.00000000000E+00  0.00000000000E+00 -0.10641574681E+04  0.10641574681E+04  0.00000000000E+00 0. -1.
       23    2    1    2    0    0  0.75135177097E+02  0.19936975372E+02 -0.82507979335E+03  0.83358231390E+03  0.89777674487E+02 0.  0.
       23    2    1    2    0    0 -0.44727076849E+02 -0.40265501515E+02 -0.13552282668E+03  0.17311066152E+03  0.89325486655E+02 0.  0.
      -11    1    4    4    0    0  0.96378036437E+01 -0.49193422443E+02 -0.83178190253E+02  0.97115865874E+02  0.00000000000E+00 0. -1.
       11    1    4    4    0    0 -0.54364880493E+02  0.89279209282E+01 -0.52344636425E+02  0.75994795648E+02  0.00000000000E+00 0.  1.
      -13    1    3    3    0    0  0.57275175821E+02 -0.19022670906E+02 -0.66926746627E+03  0.67198307210E+03  0.00000000000E+00 0. -1.
       13    1    3    3    0    0  0.17860001276E+02  0.38959646278E+02 -0.15581232708E+03  0.16159924181E+03  0.00000000000E+00 0.  1.
       21    1    1    2  502  501 -0.10982295197E+02  0.71063904337E+01  0.57873444389E+01  0.14304018612E+02  0.00000000000E+00 0. -1.
       21    1    1    2  503  502 -0.19425805051E+02  0.13222135709E+02 -0.74440916495E+02  0.78061750065E+02  0.00000000000E+00 0. -1.
<mgrwt>
<rscale>  2 0.11083766E+03</rscale>
<asrwt>0</asrwt>
<pdfrwt beam="1">  1        1 0.16371653E+00 0.11092919E+03</pdfrwt>
<pdfrwt beam="2">  1       -1 0.53694271E-02 0.11092919E+03</pdfrwt>
<totfact> 0.22356725E+03</totfact>
</mgrwt>
</event>
<event>
10   0  0.3368750E-06  0.9288270E+02  0.7546771E-02  0.1296158E+00
        2   -1    0    0  503    0  0.00000000000E+00  0.00000000000E+00  0.15974840670E+04  0.15974840670E+04  0.00000000000E+00 0. -1.
       -2   -1    0    0    0  501  0.00000000000E+00  0.00000000000E+00 -0.31615787269E+02  0.31615787269E+02  0.00000000000E+00 0.  1.
       23    2    1    2    0    0 -0.27901522974E+02 -0.72669571526E+01  0.54923468497E+03  0.55752957283E+03  0.91373857087E+02 0.  0.
       23    2    1    2    0    0 -0.37861883807E+02  0.81158069682E+01  0.98679606917E+03  0.99179631055E+03  0.91619053269E+02 0.  0.
      -11    1    4    4    0    0 -0.51631887743E+02 -0.28476153921E+02  0.67192976699E+03  0.67451193832E+03  0.00000000000E+00 0. -1.
       11    1    4    4    0    0  0.13770003936E+02  0.36591960889E+02  0.31486630219E+03  0.31728437223E+03  0.00000000000E+00 0.  1.
      -13    1    3    3    0    0 -0.46289795509E+02 -0.88711153024E+01  0.13697992516E+03  0.14486180225E+03  0.00000000000E+00 0. -1.
       13    1    3    3    0    0  0.18388272535E+02  0.16041581498E+01  0.41225475981E+03  0.41266777058E+03  0.00000000000E+00 0.  1.
       21    1    1    2  502  501  0.57946936161E+02 -0.96047608745E+01  0.14572536672E+02  0.60518242431E+02  0.00000000000E+00 0.  1.
       21    1    1    2  503  502  0.78164706200E+01  0.87559110589E+01  0.15264988888E+02  0.19255728425E+02  0.00000000000E+00 0. -1.
<mgrwt>
<rscale>  2 0.92822178E+02</rscale>
<asrwt>0</asrwt>
<pdfrwt beam="1">  1        2 0.24576678E+00 0.92882700E+02</pdfrwt>
<pdfrwt beam="2">  1       -2 0.48639673E-02 0.92882700E+02</pdfrwt>
<totfact> 0.24646388E+03</totfact>
</mgrwt>
</event>
<event>
10   0  0.3368750E-06  0.2972785E+03  0.7546771E-02  0.1120015E+00
       21   -1    0    0  501  502  0.00000000000E+00  0.00000000000E+00  0.24586559196E+04  0.24586559196E+04  0.00000000000E+00 0.  1.
       -1   -1    0    0    0  501  0.00000000000E+00  0.00000000000E+00 -0.20849067455E+02  0.20849067455E+02  0.00000000000E+00 0.  1.
       23    2    1    2    0    0 -0.49195553580E+02 -0.65294838313E+02  0.61788325336E+03  0.63030554531E+03  0.93924156952E+02 0.  0.
       23    2    1    2    0    0 -0.29603421290E+02  0.14356011328E+03  0.62827683128E+03  0.65154031389E+03  0.91033703777E+02 0.  0.
      -11    1    3    3    0    0 -0.63021731578E+02 -0.16114567392E+02  0.22827980151E+03  0.23736698530E+03  0.00000000000E+00 0. -1.
       11    1    3    3    0    0  0.13826177998E+02 -0.49180270921E+02  0.38960345185E+03  0.39293856001E+03  0.00000000000E+00 0.  1.
      -13    1    4    4    0    0 -0.34653451875E+02  0.12678452229E+03  0.36966599130E+03  0.39233674560E+03  0.00000000000E+00 0.  1.
       13    1    4    4    0    0  0.50500305851E+01  0.16775590986E+02  0.25861083998E+03  0.25920356830E+03  0.00000000000E+00 0. -1.
       21    1    1    2  503  502  0.34755336933E+01 -0.94283448514E+01  0.30409242973E+03  0.30425840800E+03  0.00000000000E+00 0. -1.
       -1    1    1    2    0  503  0.75323441177E+02 -0.68836930113E+02  0.88755433781E+03  0.89340071989E+03  0.00000000000E+00 0.  1.
<mgrwt>
<rscale>  2 0.23966604E+03</rscale>
<asrwt>0</asrwt>
<pdfrwt beam="1">  1       21 0.37825476E+00 0.29727846E+03</pdfrwt>
<pdfrwt beam="2">  1       -1 0.32075488E-02 0.29727846E+03</pdfrwt>
<totfact> 0.32506881E+02</totfact>
</mgrwt>
</event>
<event>
10   0  0.3368750E-06  0.9880916E+02  0.7546771E-02  0.1283491E+00
        1   -1    0    0  503    0  0.00000000000E+00  0.00000000000E+00  0.84788393785E+03  0.84788393785E+03  0.00000000000E+00 0. -1.
       21   -1    0    0  501  502  0.00000000000E+00  0.00000000000E+00 -0.27292752729E+03  0.27292752729E+03  0.00000000000E+00 0. -1.
       23    2    1    2    0    0  0.28804741971E+02  0.43792982929E+02  0.22614483838E+03  0.24947141097E+03  0.91361690273E+02 0.  0.
       23    2    1    2    0    0  0.51074360785E+02 -0.21812642523E+02  0.44840313406E+03  0.46070797598E+03  0.90011592524E+02 0.  0.
      -11    1    4    4    0    0  0.15814211297E+02  0.28695558382E+02  0.69567384975E+02  0.76896979148E+02  0.00000000000E+00 0.  1.
       11    1    4    4    0    0  0.35260149487E+02 -0.50508200905E+02  0.37883574909E+03  0.38381099683E+03  0.00000000000E+00 0. -1.
      -13    1    3    3    0    0  0.29592441519E+02 -0.22204272497E+02  0.57531743096E+02  0.68400612394E+02  0.00000000000E+00 0. -1.
       13    1    3    3    0    0 -0.78769954829E+00  0.65997255426E+02  0.16861309529E+03  0.18107079857E+03  0.00000000000E+00 0.  1.
       21    1    1    2  503  502  0.27898204215E+01  0.95720908993E+02 -0.20901514769E+03  0.22990782388E+03  0.00000000000E+00 0. -1.
        1    1    1    2  501    0 -0.82668923177E+02 -0.11770124940E+03  0.10942358580E+03  0.18072425432E+03  0.00000000000E+00 0. -1.
<mgrwt>
<rscale>  2 0.98495933E+02</rscale>
<asrwt>0</asrwt>
<pdfrwt beam="1">  1       21 0.41988850E-01 0.98809165E+02</pdfrwt>
<pdfrwt beam="2">  1        1 0.13044368E+00 0.98809165E+02</pdfrwt>
<totfact> 0.13699143E+03</totfact>
</mgrwt>
</event>
<event>
10   0  0.3368750E-06  0.1304075E+03  0.7546771E-02  0.1241462E+00
       21   -1    0    0  503  502  0.00000000000E+00  0.00000000000E+00  0.67732687604E+02  0.67732687604E+02  0.00000000000E+00 0. -1.
        2   -1    0    0  502    0  0.00000000000E+00  0.00000000000E+00 -0.19286676678E+04  0.19286676678E+04  0.00000000000E+00 0. -1.
       23    2    1    2    0    0 -0.24898624309E+02 -0.70052604854E+01 -0.15301414328E+04  0.15332040904E+04  0.93343254566E+02 0.  0.
       23    2    1    2    0    0  0.25257169811E+02  0.90030349174E+01 -0.37363979055E+03  0.38589608645E+03  0.92682885081E+02 0.  0.
      -11    1    4    4    0    0  0.55578727753E+02  0.20061176822E+02 -0.17640642676E+03  0.18603943990E+03  0.00000000000E+00 0.  1.
       11    1    4    4    0    0 -0.30321557942E+02 -0.11058141905E+02 -0.19723336379E+03  0.19985664655E+03  0.00000000000E+00 0. -1.
      -13    1    3    3    0    0 -0.16985872274E+02  0.42480542278E+02 -0.62143675157E+03  0.62311857020E+03  0.00000000000E+00 0. -1.
       13    1    3    3    0    0 -0.79127520350E+01 -0.49485802763E+02 -0.90870468122E+03  0.91008552016E+03  0.00000000000E+00 0.  1.
       21    1    1    2  503  501  0.11499885723E+02 -0.14247967464E+02  0.53937406460E+02  0.56960475456E+02  0.00000000000E+00 0. -1.
        2    1    1    2  501    0 -0.11858431225E+02  0.12250193032E+02 -0.11091163317E+02  0.20339703148E+02  0.00000000000E+00 0. -1.
<mgrwt>
<rscale>  2 0.12099688E+03</rscale>
<asrwt>0</asrwt>
<pdfrwt beam="1">  1       21 0.10420413E-01 0.13040746E+03</pdfrwt>
<pdfrwt beam="2">  1        2 0.29671810E+00 0.13040746E+03</pdfrwt>
<totfact> 0.81657809E+03</totfact>
</mgrwt>
</event>
<event>
10   0  0.3368750E-06  0.1739474E+03  0.7546771E-02  0.1174551E+00
       21   -1    0    0  503  502  0.00000000000E+00  0.00000000000E+00  0.41996850045E+02  0.41996850045E+02  0.00000000000E+00 0. -1.
        2   -1    0    0  502    0  0.00000000000E+00  0.00000000000E+00 -0.47487282902E+04  0.47487282902E+04  0.00000000000E+00 0. -1.
       23    2    1    2    0    0  0.94681955882E+02 -0.75647113318E+01 -0.85686311490E+03  0.86740052110E+03  0.95641877307E+02 0.  0.
       23    2    1    2    0    0 -0.16726644924E+03  0.19868286022E+02 -0.37655071879E+04  0.37703502055E+04  0.90130326800E+02 0.  0.
      -11    1    4    4    0    0 -0.67483214868E+02  0.40416411020E+02 -0.10546435582E+04  0.10575729315E+04  0.00000000000E+00 0.  1.
       11    1    4    4    0    0 -0.99783234374E+02 -0.20548124997E+02 -0.27108636297E+04  0.27127772739E+04  0.00000000000E+00 0. -1.
      -13    1    3    3    0    0  0.11061609532E+03 -0.22432199388E+02 -0.70344293587E+03  0.71244023478E+03  0.00000000000E+00 0.  1.
       13    1    3    3    0    0 -0.15934139435E+02  0.14867488056E+02 -0.15342017903E+03  0.15496028631E+03  0.00000000000E+00 0. -1.
       21    1    1    2  503  501 -0.26370671351E+02  0.58239950236E+01 -0.18224475849E+02  0.32580097383E+02  0.00000000000E+00 0. -1.
        2    1    1    2  501    0  0.98955164710E+02 -0.18127569714E+02 -0.66136661519E+02  0.12039431633E+03  0.00000000000E+00 0. -1.
<mgrwt>
<rscale>  2 0.17320047E+03</rscale>
<asrwt>0</asrwt>
<pdfrwt beam="1">  1       21 0.64610539E-02 0.17394738E+03</pdfrwt>
<pdfrwt beam="2">  1        2 0.73057358E+00 0.17394738E+03</pdfrwt>
<totfact> 0.23384856E+02</totfact>
</mgrwt>
</event>
<event>
10   0  0.3368750E-06  0.1189422E+03  0.7546771E-02  0.1245191E+00
        1   -1    0    0  502    0  0.00000000000E+00  0.00000000000E+00  0.85418135851E+03  0.85418135851E+03  0.00000000000E+00 0. -1.
       -1   -1    0    0    0  501  0.00000000000E+00  0.00000000000E+00 -0.19957820169E+03  0.19957820169E+03  0.00000000000E+00 0.  1.
       23    2    1    2    0    0  0.32561593683E+02  0.60064636297E+02  0.57592777583E+03  0.58709174806E+03  0.91191555255E+02 0.  0.
       23    2    1    2    0    0 -0.49796294914E+02 -0.70766463455E+02  0.61723965821E+02  0.14073089396E+03  0.92237591153E+02 0.  0.
      -11    1    3    3    0    0  0.55114670141E+02  0.65203134075E+02  0.36269428881E+03  0.37260733044E+03  0.00000000000E+00 0.  1.
       11    1    3    3    0    0 -0.22553076458E+02 -0.51384977785E+01  0.21323348702E+03  0.21448441763E+03  0.00000000000E+00 0. -1.
      -13    1    4    4    0    0  0.23491173068E+02 -0.13913960509E+02 -0.32334324889E+01  0.27493428212E+02  0.00000000000E+00 0.  1.
       13    1    4    4    0    0 -0.73287467982E+02 -0.56852502946E+02  0.64957398310E+02  0.11323746575E+03  0.00000000000E+00 0. -1.
       21    1    1    2  502  503 -0.48301013555E+01  0.93600723995E+01  0.17049006725E+03  0.17081511603E+03  0.00000000000E+00 0. -1.
       21    1    1    2  503  501  0.22064802587E+02  0.13417547586E+01 -0.15353865208E+03  0.15512180215E+03  0.00000000000E+00 0.  1.
<mgrwt>
<rscale>  2 0.11873940E+03</rscale>
<asrwt>0</asrwt>
<pdfrwt beam="1">  1        1 0.13141252E+00 0.11894225E+03</pdfrwt>
<pdfrwt beam="2">  1       -1 0.30704339E-01 0.11894225E+03</pdfrwt>
<totfact> 0.21292391E+02</totfact>
</mgrwt>
</event>
<event>
10   0  0.3368750E-06  0.1040195E+03  0.7546771E-02  0.1272385E+00
       21   -1    0    0  501  502  0.00000000000E+00  0.00000000000E+00  0.32916504294E+03  0.32916504294E+03  0.00000000000E+00 0.  1.
       -1   -1    0    0    0  501  0.00000000000E+00  0.00000000000E+00 -0.67517307885E+02  0.67517307885E+02  0.00000000000E+00 0.  1.
       23    2    1    2    0    0 -0.17489851837E+02  0.38693836978E+02  0.23198526317E+02  0.10323669227E+03  0.91195038626E+02 0.  0.
       23    2    1    2    0    0  0.11374841002E+01 -0.68895002330E+02  0.10607961936E+03  0.15551198267E+03  0.90461460830E+02 0.  0.
      -11    1    4    4    0    0 -0.35319673551E+02 -0.11058166163E+01  0.22512961927E+02  0.41899112459E+02  0.00000000000E+00 0. -1.
       11    1    4    4    0    0  0.36457157652E+02 -0.67789185714E+02  0.83566657434E+02  0.11361287021E+03  0.00000000000E+00 0.  1.
      -13    1    3    3    0    0 -0.43233545001E+02  0.18446187459E+01 -0.13368253167E+02  0.45290752084E+02  0.00000000000E+00 0.  1.
       13    1    3    3    0    0  0.25743693163E+02  0.36849218232E+02  0.36566779484E+02  0.57945940185E+02  0.00000000000E+00 0. -1.
       21    1    1    2  503  502 -0.24814310411E+01  0.10463094338E+02  0.50698368835E+02  0.51826233181E+02  0.00000000000E+00 0. -1.
       -1    1    1    2    0  503  0.18833798778E+02  0.19738071014E+02  0.81671220546E+02  0.86107442706E+02  0.00000000000E+00 0.  1.
<mgrwt>
<rscale>  2 0.10385846E+03</rscale>
<asrwt>0</asrwt>
<pdfrwt beam="1">  1       21 0.50640776E-01 0.10401946E+03</pdfrwt>
<pdfrwt beam="2">  1       -1 0.10387278E-01 0.10401946E+03</pdfrwt>
<totfact> 0.19028544E+04</totfact>
</mgrwt>
</event>
<event>
10   0  0.3368750E-06  0.1443793E+03  0.7546771E-02  0.1209855E+00
        2   -1    0    0  503    0  0.00000000000E+00  0.00000000000E+00  0.11446464502E+04  0.11446464502E+04  0.00000000000E+00 0. -1.
       21   -1    0    0  501  502  0.00000000000E+00  0.00000000000E+00 -0.40241527326E+02  0.40241527326E+02  0.00000000000E+00 0.  1.
       23    2    1    2    0    0 -0.91887882647E+02 -0.45808222115E+02  0.26980220232E+03  0.30228887689E+03  0.89685899253E+02 0.  0.
       23    2    1    2    0    0  0.10413353924E+03  0.35515984537E+02  0.28994664362E+03  0.32584049449E+03  0.99988962140E+02 0.  0.
      -11    1    3    3    0    0  0.62257261166E+01 -0.29652735334E+02  0.10982171638E+03  0.11392477241E+03  0.00000000000E+00 0.  1.
       11    1    3    3    0    0 -0.98113608764E+02 -0.16155486781E+02  0.15998048594E+03  0.18836410448E+03  0.00000000000E+00 0. -1.
      -13    1    4    4    0    0  0.44300669507E+02 -0.19180388957E+02  0.38799441668E+02  0.61934104604E+02  0.00000000000E+00 0. -1.
       13    1    4    4    0    0  0.59832869734E+02  0.54696373494E+02  0.25114720195E+03  0.26390638989E+03  0.00000000000E+00 0.  1.
       21    1    1    2  503  502  0.23009202094E+02  0.77960100211E+01  0.49613803109E+03  0.49673247030E+03  0.00000000000E+00 0.  1.
        2    1    1    2  501    0 -0.35254858687E+02  0.24962275563E+01  0.48518045871E+02  0.60026135875E+02  0.00000000000E+00 0. -1.
<mgrwt>
<rscale>  2 0.14261357E+03</rscale>
<asrwt>0</asrwt>
<pdfrwt beam="1">  1       21 0.61910042E-02 0.14437925E+03</pdfrwt>
<pdfrwt beam="2">  1        2 0.17609945E+00 0.14437925E+03</pdfrwt>
<totfact> 0.51560840E+04</totfact>
</mgrwt>
</event>
<event>
10   0  0.3368750E-06  0.1003287E+03  0.7546771E-02  0.1280007E+00
        1   -1    0    0  503    0  0.00000000000E+00  0.00000000000E+00  0.16901268591E+04  0.16901268591E+04  0.00000000000E+00 0. -1.
       21   -1    0    0  501  502  0.00000000000E+00  0.00000000000E+00 -0.34082780224E+02  0.34082780224E+02  0.00000000000E+00 0.  1.
       23    2    1    2    0    0 -0.43701270090E+02  0.12897829458E+02  0.91551752356E+03  0.92124678868E+03  0.91908403849E+02 0.  0.
       23    2    1    2    0    0  0.31047120935E+02  0.45763483042E+01  0.68946177045E+03  0.69637767759E+03  0.92733328717E+02 0.  0.
      -11    1    4    4    0    0  0.94965593180E+01  0.40363503332E+02  0.52707498519E+03  0.52870354364E+03  0.00000000000E+00 0. -1.
       11    1    4    4    0    0  0.21550561617E+02 -0.35787155028E+02  0.16238678526E+03  0.16767413395E+03  0.00000000000E+00 0.  1.
      -13    1    3    3    0    0  0.13119070390E+02 -0.28503749917E+02  0.22921434814E+03  0.23135209349E+03  0.00000000000E+00 0.  1.
       13    1    3    3    0    0 -0.56820340480E+02  0.41401579374E+02  0.68630317542E+03  0.68989469519E+03  0.00000000000E+00 0. -1.
       21    1    1    2  503  502  0.39100514679E+02 -0.31485159960E+02  0.57125370786E+02  0.76049152088E+02  0.00000000000E+00 0.  1.
        1    1    1    2  501    0 -0.26446365524E+02  0.14010982198E+02 -0.60605859598E+01  0.30536020922E+02  0.00000000000E+00 0. -1.
<mgrwt>
<rscale>  2 0.10013763E+03</rscale>
<asrwt>0</asrwt>
<pdfrwt beam="1">  1       21 0.52435046E-02 0.10032867E+03</pdfrwt>
<pdfrwt beam="2">  1        1 0.26001952E+00 0.10032867E+03</pdfrwt>
<totfact> 0.15667557E+04</totfact>
</mgrwt>
</event>
<event>
10   0  0.3368750E-06  0.1343385E+03  0.7546771E-02  0.1221667E+00
       21   -1    0    0  501  502  0.00000000000E+00  0.00000000000E+00  0.55349976186E+02  0.55349976186E+02  0.00000000000E+00 0.  1.
        1   -1    0    0  503    0  0.00000000000E+00  0.00000000000E+00 -0.63292506550E+03  0.63292506550E+03  0.00000000000E+00 0. -1.
       23    2    1    2    0    0  0.10440450479E+03  0.18194078820E+02 -0.45931381677E+03  0.48047483039E+03  0.93035236494E+02 0.  0.
       23    2    1    2    0    0 -0.67394994095E+02 -0.75047818507E+01 -0.60383129673E+02  0.12852373095E+03  0.90960541382E+02 0.  0.
      -11    1    4    4    0    0 -0.21371154217E+02 -0.34224218068E+02  0.87431516686E+01  0.41285179375E+02  0.00000000000E+00 0.  1.
       11    1    4    4    0    0 -0.46023839878E+02  0.26719436217E+02 -0.69126281342E+02  0.87238551576E+02  0.00000000000E+00 0. -1.
      -13    1    3    3    0    0  0.38842655879E+02 -0.37853543223E+02 -0.19798347465E+03  0.20527810133E+03  0.00000000000E+00 0.  1.
       13    1    3    3    0    0  0.65561848907E+02  0.56047622043E+02 -0.26133034213E+03  0.27519672906E+03  0.00000000000E+00 0. -1.
       21    1    1    2  503  502 -0.25540344050E+02 -0.24994238204E+02 -0.35890400280E+02  0.50647230426E+02  0.00000000000E+00 0. -1.
        1    1    1    2  501    0 -0.11469166641E+02  0.14304941235E+02 -0.21987742584E+02  0.28629249922E+02  0.00000000000E+00 0. -1.
<mgrwt>
<rscale>  2 0.13397992E+03</rscale>
<asrwt>0</asrwt>
<pdfrwt beam="1">  1       21 0.85153810E-02 0.13433845E+03</pdfrwt>
<pdfrwt beam="2">  1        1 0.97373087E-01 0.13433845E+03</pdfrwt>
<totfact> 0.39103874E+04</totfact>
</mgrwt>
</event>
<event>
10   0  0.3368750E-06  0.1041480E+03  0.7546771E-02  0.1274241E+00
        3   -1    0    0  502    0  0.00000000000E+00  0.00000000000E+00  0.14936342719E+03  0.14936342719E+03  0.00000000000E+00 0. -1.
       21   -1    0    0  503  502  0.00000000000E+00  0.00000000000E+00 -0.17324423006E+04  0.17324423006E+04  0.00000000000E+00 0. -1.
       23    2    1    2    0    0  0.46109958951E+02  0.26526448608E+02  0.31440066320E+02  0.11284752437E+03  0.94426189147E+02 0.  0.
       23    2    1    2    0    0 -0.94689083104E+01 -0.70021992916E+01  0.35545293609E+02  0.10624617871E+03  0.99428826676E+02 0.  0.
      -11    1    3    3    0    0 -0.14383709302E+01  0.46968477918E+02 -0.81415744434E+01  0.47690586736E+02  0.00000000000E+00 0.  1.
       11    1    3    3    0    0  0.47548329881E+02 -0.20442029309E+02  0.39581640763E+02  0.65156937637E+02  0.00000000000E+00 0. -1.
      -13    1    4    4    0    0 -0.23270591798E+02  0.35415539159E+02 -0.88733195589E+01  0.43295688660E+02  0.00000000000E+00 0.  1.
       13    1    4    4    0    0  0.13801683488E+02 -0.42417738450E+02  0.44418613168E+02  0.62950490055E+02  0.00000000000E+00 0. -1.
       21    1    1    2  503  501 -0.78091930616E+02  0.23170146999E+02 -0.14852911295E+04  0.14875230905E+04  0.00000000000E+00 0. -1.
        3    1    1    2  501    0  0.41450879976E+02 -0.42694396316E+02 -0.16477310381E+03  0.17518893420E+03  0.00000000000E+00 0. -1.
<mgrwt>
<rscale>  2 0.10293583E+03</rscale>
<asrwt>0</asrwt>
<pdfrwt beam="1">  1       21 0.26652958E+00 0.10414803E+03</pdfrwt>
<pdfrwt beam="2">  1        3 0.22978989E-01 0.10414803E+03</pdfrwt>
<totfact> 0.50434142E+01</totfact>
</mgrwt>
</event>
<event>
10   0  0.3368750E-06  0.1311470E+03  0.7546771E-02  0.1225987E+00
       21   -1    0    0  503  502  0.00000000000E+00  0.00000000000E+00  0.15885847166E+02  0.15885847166E+02  0.00000000000E+00 0. -1.
        1   -1    0    0  502    0  0.00000000000E+00  0.00000000000E+00 -0.16990971780E+04  0.16990971780E+04  0.00000000000E+00 0. -1.
       23    2    1    2    0    0  0.18751546270E+02  0.96497322107E+02 -0.76532657885E+03  0.77705000421E+03  0.91752836896E+02 0.  0.
       23    2    1    2    0    0 -0.49017921327E+02 -0.77514698401E+02 -0.57988171939E+03  0.59408243252E+03  0.90883678774E+02 0.  0.
      -11    1    3    3    0    0  0.40373051744E+02  0.51918039787E+02 -0.62064821828E+03  0.62412312648E+03  0.00000000000E+00 0. -1.
       11    1    3    3    0    0 -0.21621505474E+02  0.44579282319E+02 -0.14467836058E+03  0.15292687772E+03  0.00000000000E+00 0.  1.
      -13    1    4    4    0    0 -0.26363049302E+02 -0.42580343386E+02 -0.94785278341E+02  0.10720235539E+03  0.00000000000E+00 0.  1.
       13    1    4    4    0    0 -0.22654872025E+02 -0.34934355015E+02 -0.48509644105E+03  0.48688007713E+03  0.00000000000E+00 0. -1.
       21    1    1    2  503  501 -0.38937428605E+01  0.11990438065E+02 -0.32016087248E+02  0.34408744254E+02  0.00000000000E+00 0. -1.
        1    1    1    2  501    0  0.34160117917E+02 -0.30973061770E+02 -0.30598694535E+03  0.30944184419E+03  0.00000000000E+00 0. -1.
<mgrwt>
<rscale>  2 0.13099511E+03</rscale>
<asrwt>0</asrwt>
<pdfrwt beam="1">  1       21 0.24439765E-02 0.13114702E+03</pdfrwt>
<pdfrwt beam="2">  1        1 0.26139957E+00 0.13114702E+03</pdfrwt>
<totfact> 0.53998523E+04</totfact>
</mgrwt>
</event>
<event>
10   0  0.3368750E-06  0.1241821E+03  0.7546771E-02  0.1238966E+00
        1   -1    0    0  503    0  0.00000000000E+00  0.00000000000E+00  0.37601722642E+03  0.37601722642E+03  0.00000000000E+00 0. -1.
       21   -1    0    0  501  502  0.00000000000E+00  0.00000000000E+00 -0.30708266868E+03  0.30708266868E+03  0.00000000000E+00 0. -1.
       23    2    1    2    0    0  0.52475150510E+02  0.29977035427E+02  0.19406671823E+03  0.22229123001E+03  0.89995754006E+02 0.  0.
       23    2    1    2    0    0 -0.67173566905E+02 -0.38565750505E+02  0.40453053162E+02  0.13150581859E+03  0.98273727972E+02 0.  0.
      -11    1    3    3    0    0 -0.17255403296E+02 -0.25499919374E+01  0.49662234328E+01  0.18136007746E+02  0.00000000000E+00 0.  1.
       11    1    3    3    0    0  0.69730553806E+02  0.32527027364E+02  0.18910049480E+03  0.20415522226E+03  0.00000000000E+00 0. -1.
      -13    1    4    4    0    0 -0.63673734423E+02 -0.76152059740E+01 -0.16832499459E+02  0.66299840539E+02  0.00000000000E+00 0.  1.
       13    1    4    4    0    0 -0.34998324815E+01 -0.30950544531E+02  0.57285552621E+02  0.65205978048E+02  0.00000000000E+00 0. -1.
       21    1    1    2  503  502  0.16525395075E+02  0.22071312898E+02  0.79342866168E+02  0.83997154400E+02  0.00000000000E+00 0. -1.
        1    1    1    2  501    0 -0.18269786804E+01 -0.13482597820E+02 -0.24492807982E+03  0.24530569210E+03  0.00000000000E+00 0. -1.
<mgrwt>
<rscale>  2 0.12253930E+03</rscale>
<asrwt>0</asrwt>
<pdfrwt beam="1">  1       21 0.47243487E-01 0.12418215E+03</pdfrwt>
<pdfrwt beam="2">  1        1 0.57848804E-01 0.12418215E+03</pdfrwt>
<totfact> 0.31769628E+03</totfact>
</mgrwt>
</event>
<event>
10   0  0.3368750E-06  0.7057253E+03  0.7546771E-02  0.9758046E-01
       -1   -1    0    0    0  501  0.00000000000E+00  0.00000000000E+00  0.18350497873E+04  0.18350497873E+04  0.00000000000E+00 0.  1.
        1   -1    0    0  501    0  0.00000000000E+00  0.00000000000E+00 -0.10914977978E+04  0.10914977978E+04  0.00000000000E+00 0. -1.
       23    2    1    2    0    0 -0.39517285973E+02 -0.11692930418E+03  0.31436874430E+02  0.15587141212E+03  0.89852890749E+02 0.  0.
       23    2    1    2    0    0 -0.32632401910E+02 -0.26057360408E+01 -0.98361094302E+03  0.98811147195E+03  0.88329668031E+02 0.  0.
      -11    1    4    4    0    0 -0.18868711742E+02  0.21440318167E+02 -0.98248380301E+02  0.10231549129E+03  0.00000000000E+00 0.  1.
       11    1    4    4    0    0 -0.13763690168E+02 -0.24046054207E+02 -0.88536256272E+03  0.88579598067E+03  0.00000000000E+00 0. -1.
      -13    1    3    3    0    0 -0.61992286330E+02 -0.77535657685E+02 -0.23765997505E+01  0.99299899312E+02  0.00000000000E+00 0. -1.
       13    1    3    3    0    0  0.22475000357E+02 -0.39393646491E+02  0.33813474180E+02  0.56571512805E+02  0.00000000000E+00 0.  1.
        1    1    1    2  502    0 -0.22224302334E+02 -0.10577437382E+03  0.50493982790E+02  0.11929702457E+03  0.00000000000E+00 0. -1.
       -1    1    1    2    0  502  0.94373990217E+02  0.22530941404E+03  0.16452320753E+04  0.16632676765E+04  0.00000000000E+00 0.  1.
<mgrwt>
<rscale>  2 0.67663440E+03</rscale>
<asrwt>0</asrwt>
<pdfrwt beam="1">  1        1 0.16792274E+00 0.70572534E+03</pdfrwt>
<pdfrwt beam="2">  1       -1 0.28231535E+00 0.70572534E+03</pdfrwt>
<totfact> 0.59220187E-01</totfact>
</mgrwt>
</event>
<event>
10   0  0.3368750E-06  0.8705017E+02  0.7546771E-02  0.1310399E+00
       -2   -1    0    0    0  501  0.00000000000E+00  0.00000000000E+00  0.30221485148E+03  0.30221485148E+03  0.00000000000E+00 0.  1.
        2   -1    0    0  503    0  0.00000000000E+00  0.00000000000E+00 -0.86352822551E+02  0.86352822551E+02  0.00000000000E+00 0. -1.
       23    2    1    2    0    0 -0.19681699299E+01 -0.26001917057E+02  0.41865019198E+02  0.99792649568E+02  0.86752058719E+02 0.  0.
       23    2    1    2    0    0  0.17391826988E+02 -0.25750408159E+02  0.16217937429E+03  0.18635276854E+03  0.86369240661E+02 0.  0.
      -11    1    4    4    0    0  0.46679630456E+02  0.47459236084E+01  0.10700582713E+03  0.11684074088E+03  0.00000000000E+00 0. -1.
       11    1    4    4    0    0 -0.29287803468E+02 -0.30496331767E+02  0.55173547163E+02  0.69512027662E+02  0.00000000000E+00 0.  1.
      -13    1    3    3    0    0  0.37847915693E+02  0.74241000953E+01  0.19113000675E+02  0.43045194614E+02  0.00000000000E+00 0. -1.
       13    1    3    3    0    0 -0.39816085623E+02 -0.33426017153E+02  0.22752018523E+02  0.56747454955E+02  0.00000000000E+00 0.  1.
       21    1    1    2  502  501 -0.18761438977E+02  0.34513346094E+02  0.48106781647E+02  0.62108172502E+02  0.00000000000E+00 0.  1.
       21    1    1    2  503  502  0.33377819192E+01  0.17238979122E+02 -0.36289146206E+02  0.40314083416E+02  0.00000000000E+00 0. -1.
<mgrwt>
<rscale>  2 0.86954637E+02</rscale>
<asrwt>0</asrwt>
<pdfrwt beam="1">  1        2 0.13285050E-01 0.87050169E+02</pdfrwt>
<pdfrwt beam="2">  1       -2 0.46494593E-01 0.87050169E+02</pdfrwt>
<totfact> 0.18958677E+03</totfact>
</mgrwt>
</event>
<event>
10   0  0.3368750E-06  0.9633606E+02  0.7546771E-02  0.1288679E+00
       -1   -1    0    0    0  501  0.00000000000E+00  0.00000000000E+00  0.33818087888E+02  0.33818087888E+02  0.00000000000E+00 0.  1.
        1   -1    0    0  502    0  0.00000000000E+00  0.00000000000E+00 -0.49376820500E+03  0.49376820500E+03  0.00000000000E+00 0. -1.
       23    2    1    2    0    0 -0.20719332073E+02 -0.28559573154E+02 -0.21059009411E+03  0.23226935290E+03  0.91410746753E+02 0.  0.
       23    2    1    2    0    0 -0.16530219503E+02  0.32032445719E+02 -0.23397689036E+03  0.25344266493E+03  0.90491289374E+02 0.  0.
      -11    1    3    3    0    0 -0.29900134628E+02  0.27769307151E+02 -0.93149247531E+02  0.10169530366E+03  0.00000000000E+00 0.  1.
       11    1    3    3    0    0  0.91808025547E+01 -0.56328880305E+02 -0.11744084657E+03  0.13057404925E+03  0.00000000000E+00 0. -1.
      -13    1    4    4    0    0 -0.40895167097E+02  0.47537217435E+02 -0.11473066811E+03  0.13074910301E+03  0.00000000000E+00 0.  1.
       13    1    4    4    0    0  0.24364947594E+02 -0.15504771716E+02 -0.11924622225E+03  0.12269356192E+03  0.00000000000E+00 0. -1.
       21    1    1    2  502  503  0.23554298429E+02 -0.39589291565E+01 -0.43425399942E+01  0.24276238344E+02  0.00000000000E+00 0. -1.
       21    1    1    2  503  501  0.13695253147E+02  0.48605659183E+00 -0.11040592655E+02  0.17598036707E+02  0.00000000000E+00 0.  1.
<mgrwt>
<rscale>  2 0.96117309E+02</rscale>
<asrwt>0</asrwt>
<pdfrwt beam="1">  1        1 0.75964339E-01 0.96336055E+02</pdfrwt>
<pdfrwt beam="2">  1       -1 0.52027828E-02 0.96336055E+02</pdfrwt>
<totfact> 0.71248537E+03</totfact>
</mgrwt>
</event>
<event>
10   0  0.3368750E-06  0.1268808E+03  0.7546771E-02  0.1247022E+00
       -2   -1    0    0    0  501  0.00000000000E+00  0.00000000000E+00  0.31248586191E+03  0.31248586191E+03  0.00000000000E+00 0.  1.
        2   -1    0    0  503    0  0.00000000000E+00  0.00000000000E+00 -0.96920810859E+03  0.96920810859E+03  0.00000000000E+00 0. -1.
       23    2    1    2    0    0  0.55821868116E+02 -0.75973816385E+02  0.26977380338E+03  0.29790092567E+03  0.84136524723E+02 0.  0.
       23    2    1    2    0    0  0.13811259446E+02  0.21800263466E+02 -0.81335857181E+03  0.81883949142E+03  0.90994197594E+02 0.  0.
      -11    1    3    3    0    0  0.68643001326E+02 -0.78092699167E+02  0.18567453776E+03  0.21280358377E+03  0.00000000000E+00 0.  1.
       11    1    3    3    0    0 -0.12821133210E+02  0.21188827824E+01  0.84099265622E+02  0.85097341904E+02  0.00000000000E+00 0. -1.
      -13    1    4    4    0    0 -0.18970531293E+02 -0.12939097914E+02 -0.58925402734E+03  0.58970128883E+03  0.00000000000E+00 0. -1.
       13    1    4    4    0    0  0.32781790739E+02  0.34739361380E+02 -0.22410454446E+03  0.22913820258E+03  0.00000000000E+00 0.  1.
       21    1    1    2  502  501 -0.77178447917E+02  0.67545736690E+02 -0.86323705722E+02  0.13405491986E+03  0.00000000000E+00 0. -1.
       21    1    1    2  503  502  0.75453203544E+01 -0.13372183771E+02 -0.26813772529E+02  0.30898633551E+02  0.00000000000E+00 0.  1.
<mgrwt>
<rscale>  2 0.11765146E+03</rscale>
<asrwt>0</asrwt>
<pdfrwt beam="1">  1        2 0.14910894E+00 0.12688078E+03</pdfrwt>
<pdfrwt beam="2">  1       -2 0.48074748E-01 0.12688078E+03</pdfrwt>
<totfact> 0.11979680E+02</totfact>
</mgrwt>
</event>
<event>
10   0  0.3368750E-06  0.1423617E+03  0.7546771E-02  0.1222253E+00
       21   -1    0    0  503  502  0.00000000000E+00  0.00000000000E+00  0.13935123899E+03  0.13935123899E+03  0.00000000000E+00 0.  1.
        1   -1    0    0  502    0  0.00000000000E+00  0.00000000000E+00 -0.41232445615E+03  0.41232445615E+03  0.00000000000E+00 0. -1.
       23    2    1    2    0    0 -0.69269216817E+02  0.50231122565E+02 -0.55340205449E+02  0.13653382825E+03  0.90871105663E+02 0.  0.
       23    2    1    2    0    0 -0.29566614911E+02 -0.34080882028E+02 -0.15138392176E+02  0.10228270352E+03  0.90536673703E+02 0.  0.
      -11    1    3    3    0    0 -0.83077950248E+02  0.19420929831E+02 -0.57202704409E+02  0.10271936392E+03  0.00000000000E+00 0.  1.
       11    1    3    3    0    0  0.13808733431E+02  0.30810192734E+02  0.18624989599E+01  0.33814464326E+02  0.00000000000E+00 0. -1.
      -13    1    4    4    0    0 -0.25203480256E+02 -0.42922723523E+02  0.28627139816E+02  0.57420281658E+02  0.00000000000E+00 0.  1.
       13    1    4    4    0    0 -0.43631346553E+01  0.88418414944E+01 -0.43765531992E+02  0.44862421865E+02  0.00000000000E+00 0. -1.
       21    1    1    2  503  501  0.12562601292E+03  0.15258450745E+02 -0.23051375599E+03  0.26296636124E+03  0.00000000000E+00 0. -1.
        1    1    1    2  501    0 -0.26790181191E+02 -0.31408691282E+02  0.28019136461E+02  0.49892802129E+02  0.00000000000E+00 0. -1.
<mgrwt>
<rscale>  2 0.13356957E+03</rscale>
<asrwt>0</asrwt>
<pdfrwt beam="1">  1       21 0.21438652E-01 0.14236172E+03</pdfrwt>
<pdfrwt beam="2">  1        1 0.63434532E-01 0.14236172E+03</pdfrwt>
<totfact> 0.13105044E+04</totfact>
</mgrwt>
</event>
<event>
10   0  0.3368750E-06  0.2808932E+03  0.7546771E-02  0.1095209E+00
       -3   -1    0    0    0  501  0.00000000000E+00  0.00000000000E+00  0.36560159991E+03  0.36560159991E+03  0.00000000000E+00 0.  1.
        3   -1    0    0  502    0  0.00000000000E+00  0.00000000000E+00 -0.32633863749E+03  0.32633863749E+03  0.00000000000E+00 0. -1.
       23    2    1    2    0    0  0.12714031044E+03 -0.24282921340E+03  0.66634403503E+02  0.29639554947E+03  0.90991717202E+02 0.  0.
       23    2    1    2    0    0 -0.17749718020E+03  0.19275877950E+03  0.54897215033E+02  0.28271237938E+03  0.90837157514E+02 0.  0.
      -11    1    4    4    0    0 -0.15766860670E+03  0.16780874850E+03  0.13753489358E+02  0.23066929592E+03  0.00000000000E+00 0. -1.
       11    1    4    4    0    0 -0.19828573504E+02  0.24950031003E+02  0.41143725675E+02  0.52043083466E+02  0.00000000000E+00 0.  1.
      -13    1    3    3    0    0  0.13522416861E+03 -0.18213458357E+03  0.61017287159E+02  0.23490783649E+03  0.00000000000E+00 0.  1.
       13    1    3    3    0    0 -0.80838581722E+01 -0.60694629823E+02  0.56171163436E+01  0.61487712987E+02  0.00000000000E+00 0. -1.
       21    1    1    2  502  503  0.48158321794E+02  0.35792345775E+02 -0.76624992549E+02  0.97322687269E+02  0.00000000000E+00 0. -1.
       21    1    1    2  503  501  0.21985479673E+01  0.14278088123E+02 -0.56436635716E+01  0.15509621276E+02  0.00000000000E+00 0. -1.
<mgrwt>
<rscale>  2 0.28088068E+03</rscale>
<asrwt>0</asrwt>
<pdfrwt beam="1">  1        3 0.50205944E-01 0.28089319E+03</pdfrwt>
<pdfrwt beam="2">  1       -3 0.56246400E-01 0.28089319E+03</pdfrwt>
<totfact> 0.31078264E+01</totfact>
</mgrwt>
</event>
<event>
10   0  0.3368750E-06  0.9493925E+02  0.7546771E-02  0.1291557E+00
        1   -1    0    0  503    0  0.00000000000E+00  0.00000000000E+00  0.35673673702E+04  0.35673673702E+04  0.00000000000E+00 0. -1.
       -1   -1    0    0    0  501  0.00000000000E+00  0.00000000000E+00 -0.77654841046E+01  0.77654841046E+01  0.00000000000E+00 0.  1.
       23    2    1    2    0    0 -0.45594664855E+02  0.12469386276E+01  0.85820795813E+03  0.86411830592E+03  0.89995104956E+02 0.  0.
       23    2    1    2    0    0  0.10769579216E+02  0.26862888092E+02  0.50685171898E+03  0.51567172778E+03  0.90449252084E+02 0.  0.
      -11    1    3    3    0    0  0.82139447150E+01 -0.13978300276E+02  0.58606846057E+03  0.58629267627E+03  0.00000000000E+00 0. -1.
       11    1    3    3    0    0 -0.53808609570E+02  0.15225238904E+02  0.27213949756E+03  0.27782562966E+03  0.00000000000E+00 0.  1.
      -13    1    4    4    0    0  0.42506913528E+02  0.59392754835E+01  0.12987335197E+03  0.13678157859E+03  0.00000000000E+00 0. -1.
       13    1    4    4    0    0 -0.31737334312E+02  0.20923612609E+02  0.37697836701E+03  0.37889014919E+03  0.00000000000E+00 0.  1.
       21    1    1    2  502  501  0.11624532062E+02 -0.67715187916E+01  0.16243150199E+03  0.16298765613E+03  0.00000000000E+00 0. -1.
       21    1    1    2  503  502  0.23200553576E+02 -0.21338307928E+02  0.20321107070E+04  0.20323551645E+04  0.00000000000E+00 0. -1.
<mgrwt>
<rscale>  2 0.94830921E+02</rscale>
<asrwt>0</asrwt>
<pdfrwt beam="1">  1        1 0.54882575E+00 0.94939249E+02</pdfrwt>
<pdfrwt beam="2">  1       -1 0.11946899E-02 0.94939249E+02</pdfrwt>
<totfact> 0.42775529E+02</totfact>
</mgrwt>
</event>
<event>
10   0  0.3368750E-06  0.9904899E+02  0.7546771E-02  0.1283564E+00
       -2   -1    0    0    0  501  0.00000000000E+00  0.00000000000E+00  0.38272840976E+02  0.38272840976E+02  0.00000000000E+00 0.  1.
        2   -1    0    0  502    0  0.00000000000E+00  0.00000000000E+00 -0.69561309190E+03  0.69561309190E+03  0.00000000000E+00 0. -1.
       23    2    1    2    0    0  0.41380473747E+02  0.27260803947E+02 -0.11570578132E+03  0.15589582461E+03  0.91979265383E+02 0.  0.
       23    2    1    2    0    0 -0.43698822835E+01 -0.29675916727E+02 -0.12603222971E+03  0.15744275773E+03  0.89466994637E+02 0.  0.
      -11    1    3    3    0    0 -0.11050610102E+02 -0.16507951650E+02 -0.72280858527E+02  0.74960996262E+02  0.00000000000E+00 0. -1.
       11    1    3    3    0    0  0.52431083849E+02  0.43768755597E+02 -0.43424922796E+02  0.80934828349E+02  0.00000000000E+00 0.  1.
      -13    1    4    4    0    0  0.87092794077E+00 -0.26761052525E+02  0.41739061035E+01  0.27098596640E+02  0.00000000000E+00 0.  1.
       13    1    4    4    0    0 -0.52408102243E+01 -0.29148642026E+01 -0.13020613581E+03  0.13034416108E+03  0.00000000000E+00 0. -1.
       21    1    1    2  502  503 -0.12145038122E+02 -0.10822811244E+01 -0.35136793060E+03  0.35157943048E+03  0.00000000000E+00 0. -1.
       21    1    1    2  503  501 -0.24865553341E+02  0.34973939051E+01 -0.64234309292E+02  0.68967920059E+02  0.00000000000E+00 0. -1.
<mgrwt>
<rscale>  2 0.98461674E+02</rscale>
<asrwt>0</asrwt>
<pdfrwt beam="1">  1        2 0.10701740E+00 0.99048993E+02</pdfrwt>
<pdfrwt beam="2">  1       -2 0.58881294E-02 0.99048993E+02</pdfrwt>
<totfact> 0.61111038E+03</totfact>
</mgrwt>
</event>
<event>
10   0  0.3368750E-06  0.1319798E+03  0.7546771E-02  0.1225202E+00
       21   -1    0    0  501  502  0.00000000000E+00  0.00000000000E+00  0.67159988184E+02  0.67159988184E+02  0.00000000000E+00 0. -1.
        3   -1    0    0  503    0  0.00000000000E+00  0.00000000000E+00 -0.10601639438E+04  0.10601639438E+04  0.00000000000E+00 0. -1.
       23    2    1    2    0    0  0.92303332456E+01 -0.76890787201E+02 -0.48101556975E+03  0.49561363630E+03  0.90881824026E+02 0.  0.
       23    2    1    2    0    0  0.52156889200E+01  0.16147906895E+03 -0.24959419693E+03  0.31165330811E+03  0.93422846235E+02 0.  0.
      -11    1    3    3    0    0  0.32032230264E+02  0.61246392522E+01 -0.10946914587E+03  0.11422376670E+03  0.00000000000E+00 0.  1.
       11    1    3    3    0    0 -0.22801897018E+02 -0.83015426454E+02 -0.37154642388E+03  0.38138986961E+03  0.00000000000E+00 0. -1.
      -13    1    4    4    0    0 -0.23871012530E+02  0.78555505946E+01 -0.65310379873E+02  0.69978429773E+02  0.00000000000E+00 0.  1.
       13    1    4    4    0    0  0.29086701450E+02  0.15362351835E+03 -0.18428381705E+03  0.24167487834E+03  0.00000000000E+00 0. -1.
       21    1    1    2  503  502 -0.62896268294E+02 -0.96640169613E+02 -0.23806313008E+03  0.26451713905E+03  0.00000000000E+00 0. -1.
        3    1    1    2  501    0  0.48450246129E+02  0.12051887868E+02 -0.24331058903E+02  0.55539848563E+02  0.00000000000E+00 0. -1.
<mgrwt>
<rscale>  2 0.13153091E+03</rscale>
<asrwt>0</asrwt>
<pdfrwt beam="1">  1       21 0.10332306E-01 0.13197977E+03</pdfrwt>
<pdfrwt beam="2">  1        3 0.16310215E+00 0.13197977E+03</pdfrwt>
<totfact> 0.10539001E+03</totfact>
</mgrwt>
</event>
<event>
10   0  0.3368750E-06  0.1185256E+03  0.7546771E-02  0.1245791E+00
       -1   -1    0    0    0  501  0.00000000000E+00  0.00000000000E+00  0.42280444687E+02  0.42280444687E+02  0.00000000000E+00 0.  1.
        1   -1    0    0  503    0  0.00000000000E+00  0.00000000000E+00 -0.11092094182E+04  0.11092094182E+04  0.00000000000E+00 0. -1.
       23    2    1    2    0    0 -0.75842081898E+01 -0.83168496131E+02 -0.48447596349E+03  0.49977609039E+03  0.89914750521E+02 0.  0.
       23    2    1    2    0    0  0.17914760368E+02  0.71164061494E+02 -0.53808709201E+03  0.55058458508E+03  0.90666446089E+02 0.  0.
      -11    1    4    4    0    0  0.47052752712E+02  0.28036569925E+02 -0.16425309052E+03  0.17314470404E+03  0.00000000000E+00 0.  1.
       11    1    4    4    0    0 -0.29137992344E+02  0.43127491569E+02 -0.37383400150E+03  0.37743988104E+03  0.00000000000E+00 0. -1.
      -13    1    3    3    0    0  0.38665809302E+02 -0.47102584645E+02 -0.19061211011E+03  0.20011665300E+03  0.00000000000E+00 0.  1.
       13    1    3    3    0    0 -0.46250017492E+02 -0.36065911486E+02 -0.29386385338E+03  0.29965943738E+03  0.00000000000E+00 0. -1.
       21    1    1    2  502  501 -0.82601001012E+01  0.23051427499E+02  0.22542669312E+02  0.33283171471E+02  0.00000000000E+00 0.  1.
       21    1    1    2  503  502 -0.20704520770E+01 -0.11046992862E+02 -0.66908587354E+02  0.67846015983E+02  0.00000000000E+00 0.  1.
<mgrwt>
<rscale>  2 0.11838183E+03</rscale>
<asrwt>0</asrwt>
<pdfrwt beam="1">  1        1 0.17064760E+00 0.11852560E+03</pdfrwt>
<pdfrwt beam="2">  1       -1 0.65046838E-02 0.11852560E+03</pdfrwt>
<totfact> 0.15656621E+03</totfact>
</mgrwt>
</event>
<event>
10   0  0.3368750E-06  0.1322372E+03  0.7546771E-02  0.1224712E+00
       21   -1    0    0  501  502  0.00000000000E+00  0.00000000000E+00  0.77874940661E+03  0.77874940661E+03  0.00000000000E+00 0.  1.
        1   -1    0    0  503    0  0.00000000000E+00  0.00000000000E+00 -0.21755115972E+03  0.21755115972E+03  0.00000000000E+00 0. -1.
       23    2    1    2    0    0 -0.11096469101E+03  0.20459072030E+02 -0.95334002261E+02  0.17394108500E+03  0.91843305608E+02 0.  0.
       23    2    1    2    0    0  0.12331000389E+03 -0.98408479080E+02  0.25511718797E+03  0.31308332478E+03  0.89703973373E+02 0.  0.
      -11    1    3    3    0    0 -0.93128591973E+02 -0.25161365942E+02 -0.61350233892E+02  0.11432357665E+03  0.00000000000E+00 0.  1.
       11    1    3    3    0    0 -0.17836099033E+02  0.45620437971E+02 -0.33983768369E+02  0.59617508351E+02  0.00000000000E+00 0. -1.
      -13    1    4    4    0    0  0.13089051632E+03 -0.10634270859E+03  0.24832703191E+03  0.30017896947E+03  0.00000000000E+00 0.  1.
       13    1    4    4    0    0 -0.75805124285E+01  0.79342295075E+01  0.67901560564E+01  0.12904355305E+02  0.00000000000E+00 0. -1.
       21    1    1    2  503  502  0.34676694049E+02  0.91953717630E+01 -0.43640153752E+02  0.56493282712E+02  0.00000000000E+00 0. -1.
        1    1    1    2  501    0 -0.47022006938E+02  0.68754035287E+02  0.44505521493E+03  0.45278287384E+03  0.00000000000E+00 0. -1.
<mgrwt>
<rscale>  2 0.13186643E+03</rscale>
<asrwt>0</asrwt>
<pdfrwt beam="1">  1       21 0.11980760E+00 0.13223718E+03</pdfrwt>
<pdfrwt beam="2">  1        1 0.33469409E-01 0.13223718E+03</pdfrwt>
<totfact> 0.78901233E+02</totfact>
</mgrwt>
</event>
<event>
10   0  0.3368750E-06  0.9752464E+02  0.7546771E-02  0.1286797E+00
        4   -1    0    0  503    0  0.00000000000E+00  0.00000000000E+00  0.11266767722E+04  0.11266767722E+04  0.00000000000E+00 0. -1.
       -4   -1    0    0    0  501  0.00000000000E+00  0.00000000000E+00 -0.14458828545E+02  0.14458828545E+02  0.00000000000E+00 0.  1.
       23    2    1    2    0    0 -0.22777956462E+02 -0.15828593949E+02  0.31904300575E+03  0.33308127673E+03  0.91571380369E+02 0.  0.
       23    2    1    2    0    0  0.91796118425E+01  0.16101488963E+02  0.56744711059E+03  0.57545487191E+03  0.93853945417E+02 0.  0.
      -11    1    4    4    0    0  0.28352775514E+02  0.35774516022E+02  0.50708894248E+03  0.50913936349E+03  0.00000000000E+00 0.  1.
       11    1    4    4    0    0 -0.19173163672E+02 -0.19673027059E+02  0.60358168110E+02  0.66315508416E+02  0.00000000000E+00 0. -1.
      -13    1    3    3    0    0 -0.61682696324E+01  0.33954277477E+02  0.20039474243E+03  0.20334451874E+03  0.00000000000E+00 0.  1.
       13    1    3    3    0    0 -0.16609686830E+02 -0.49782871426E+02  0.11864826332E+03  0.12973675799E+03  0.00000000000E+00 0. -1.
       21    1    1    2  502  501 -0.45341365174E-01 -0.16254696579E+02  0.19868927566E+02  0.25670829736E+02  0.00000000000E+00 0.  1.
       21    1    1    2  503  502  0.13643685985E+02  0.15981801565E+02  0.20585889971E+03  0.20692862233E+03  0.00000000000E+00 0.  1.
<mgrwt>
<rscale>  2 0.96971287E+02</rscale>
<asrwt>0</asrwt>
<pdfrwt beam="1">  1        4 0.17333489E+00 0.97524638E+02</pdfrwt>
<pdfrwt beam="2">  1       -4 0.22244352E-02 0.97524638E+02</pdfrwt>
<totfact> 0.29472135E+02</totfact>
</mgrwt>
</event>
<event>
10   0  0.3368750E-06  0.1476189E+03  0.7546771E-02  0.1203850E+00
        4   -1    0    0  503    0  0.00000000000E+00  0.00000000000E+00  0.91492523240E+02  0.91492523240E+02  0.00000000000E+00 0. -1.
       -4   -1    0    0    0  501  0.00000000000E+00  0.00000000000E+00 -0.88531557259E+03  0.88531557259E+03  0.00000000000E+00 0.  1.
       23    2    1    2    0    0 -0.10540278658E+03  0.32052323284E+02  0.57950343961E+01  0.14248889978E+03  0.90179849694E+02 0.  0.
       23    2    1    2    0    0  0.14653629241E+03 -0.42098017273E+02 -0.49206944759E+03  0.52335576469E+03  0.92324358280E+02 0.  0.
      -11    1    4    4    0    0  0.11766994589E+03  0.10504891428E+02 -0.31805043650E+03  0.33928255049E+03  0.00000000000E+00 0.  1.
       11    1    4    4    0    0  0.28866346523E+02 -0.52602908701E+02 -0.17401901109E+03  0.18407321420E+03  0.00000000000E+00 0. -1.
      -13    1    3    3    0    0 -0.65114211698E+02  0.48347816607E+02 -0.29708446483E+02  0.86371081550E+02  0.00000000000E+00 0.  1.
       13    1    3    3    0    0 -0.40288574884E+02 -0.16295493323E+02  0.35503480879E+02  0.56117818234E+02  0.00000000000E+00 0. -1.
       21    1    1    2  502  501 -0.31974826102E+02  0.33963546844E+01 -0.26467658763E+03  0.26662261864E+03  0.00000000000E+00 0. -1.
       21    1    1    2  503  502 -0.91586797305E+01  0.66493393050E+01 -0.42872048522E+02  0.44340812713E+02  0.00000000000E+00 0.  1.
<mgrwt>
<rscale>  2 0.14728481E+03</rscale>
<asrwt>0</asrwt>
<pdfrwt beam="1">  1        4 0.14075773E-01 0.14761885E+03</pdfrwt>
<pdfrwt beam="2">  1       -4 0.13620240E+00 0.14761885E+03</pdfrwt>
<totfact> 0.29321178E+01</totfact>
</mgrwt>
</event>
<event>
10   0  0.3368750E-06  0.3388067E+03  0.7546771E-02  0.1106932E+00
       21   -1    0    0  503  502  0.00000000000E+00  0.00000000000E+00  0.20430786005E+04  0.20430786005E+04  0.00000000000E+00 0. -1.
        2   -1    0    0  502    0  0.00000000000E+00  0.00000000000E+00 -0.47743383507E+02  0.47743383507E+02  0.00000000000E+00 0. -1.
       23    2    1    2    0    0  0.82007580961E+02  0.75188236974E+00  0.25246517279E+03  0.28023589491E+03  0.89820290939E+02 0.  0.
       23    2    1    2    0    0 -0.18009055498E+03  0.43278586532E+02  0.47344387788E+03  0.51786847810E+03  0.98656023962E+02 0.  0.
      -11    1    3    3    0    0  0.31907517645E+02  0.41167245825E+02  0.15425266387E+03  0.16280883306E+03  0.00000000000E+00 0. -1.
       11    1    3    3    0    0  0.50100063317E+02 -0.40415363455E+02  0.98212508917E+02  0.11742706185E+03  0.00000000000E+00 0.  1.
      -13    1    4    4    0    0 -0.10205603750E+03 -0.24350593403E+02  0.20596982920E+03  0.23115353497E+03  0.00000000000E+00 0.  1.
       13    1    4    4    0    0 -0.78034517485E+02  0.67629179935E+02  0.26747404868E+03  0.28671494313E+03  0.00000000000E+00 0. -1.
       21    1    1    2  503  501 -0.27988703284E+02 -0.61626946118E+02  0.88872652824E+03  0.89130022439E+03  0.00000000000E+00 0. -1.
        2    1    1    2  501    0  0.12607167730E+03  0.17596477216E+02  0.38069963808E+03  0.40141738660E+03  0.00000000000E+00 0. -1.
<mgrwt>
<rscale>  2 0.26035126E+03</rscale>
<asrwt>0</asrwt>
<pdfrwt beam="1">  1       21 0.31431978E+00 0.33880673E+03</pdfrwt>
<pdfrwt beam="2">  1        2 0.73451359E-02 0.33880673E+03</pdfrwt>
<totfact> 0.28878027E+02</totfact>
</mgrwt>
</event>
<event>
10   0  0.3368750E-06  0.1263202E+03  0.7546771E-02  0.1233415E+00
       21   -1    0    0  501  502  0.00000000000E+00  0.00000000000E+00  0.69102455635E+03  0.69102455635E+03  0.00000000000E+00 0.  1.
        2   -1    0    0  503    0  0.00000000000E+00  0.00000000000E+00 -0.81102283037E+02  0.81102283037E+02  0.00000000000E+00 0.  1.
       23    2    1    2    0    0 -0.52972779303E+02  0.53135393775E+02  0.18973101885E+03  0.22298867204E+03  0.89981125373E+02 0.  0.
       23    2    1    2    0    0  0.72046735704E+02 -0.51891533457E+02  0.61865317809E+02  0.13982528600E+03  0.88545636176E+02 0.  0.
      -11    1    3    3    0    0 -0.51241841842E+02  0.61393416693E+02  0.80626546701E+02  0.11355843430E+03  0.00000000000E+00 0. -1.
       11    1    3    3    0    0 -0.17309374606E+01 -0.82580229177E+01  0.10910447215E+03  0.10943023773E+03  0.00000000000E+00 0.  1.
      -13    1    4    4    0    0  0.86343607108E+02 -0.28740214320E+02  0.25687917822E+02  0.94557324040E+02  0.00000000000E+00 0.  1.
       13    1    4    4    0    0 -0.14296871404E+02 -0.23151319137E+02  0.36177399987E+02  0.45267961955E+02  0.00000000000E+00 0. -1.
       21    1    1    2  503  502 -0.18431425574E+02 -0.47419555981E+02  0.29629543851E+01  0.50961856685E+02  0.00000000000E+00 0. -1.
        2    1    1    2  501    0 -0.64253082710E+00  0.46175695663E+02  0.35536298226E+03  0.35835102467E+03  0.00000000000E+00 0.  1.
<mgrwt>
<rscale>  2 0.12606478E+03</rscale>
<asrwt>0</asrwt>
<pdfrwt beam="1">  1       21 0.10631147E+00 0.12632018E+03</pdfrwt>
<pdfrwt beam="2">  1        2 0.12477274E-01 0.12632018E+03</pdfrwt>
<totfact> 0.42939176E+03</totfact>
</mgrwt>
</event>
<event>
10   0  0.3368750E-06  0.1152961E+03  0.7546771E-02  0.1251451E+00
       -2   -1    0    0    0  501  0.00000000000E+00  0.00000000000E+00  0.47019198915E+03  0.47019198915E+03  0.00000000000E+00 0.  1.
        2   -1    0    0  502    0  0.00000000000E+00  0.00000000000E+00 -0.59978841887E+02  0.59978841887E+02  0.00000000000E+00 0. -1.
       23    2    1    2    0    0  0.26434109679E+02  0.77293201177E+02  0.31909487695E+03  0.34148778810E+03  0.90107534770E+02 0.  0.
       23    2    1    2    0    0  0.86408458499E+01 -0.36348179282E+02  0.25101371148E+02  0.10172639195E+03  0.91226781326E+02 0.  0.
      -11    1    4    4    0    0 -0.75727863005E+01  0.17948375066E+02  0.38811210607E+02  0.43425814082E+02  0.00000000000E+00 0.  1.
       11    1    4    4    0    0  0.16213632150E+02 -0.54296554348E+02 -0.13709839459E+02  0.58300577866E+02  0.00000000000E+00 0. -1.
      -13    1    3    3    0    0  0.53901910251E+01  0.43994470160E+02  0.28776026591E+03  0.29115380506E+03  0.00000000000E+00 0.  1.
       13    1    3    3    0    0  0.21043918654E+02  0.33298731017E+02  0.31334611041E+02  0.50333983040E+02  0.00000000000E+00 0. -1.
       21    1    1    2  502  503 -0.32559494609E+02 -0.29531271801E+02  0.44986547845E+02  0.62896789985E+02  0.00000000000E+00 0. -1.
       21    1    1    2  503  501 -0.25154609195E+01 -0.11413750094E+02  0.21030351315E+02  0.24059860999E+02  0.00000000000E+00 0. -1.
<mgrwt>
<rscale>  2 0.11507462E+03</rscale>
<asrwt>0</asrwt>
<pdfrwt beam="1">  1        2 0.92275141E-02 0.11529614E+03</pdfrwt>
<pdfrwt beam="2">  1       -2 0.72337229E-01 0.11529614E+03</pdfrwt>
<totfact> 0.12161920E+03</totfact>
</mgrwt>
</event>
<event>
10   0  0.3368750E-06  0.3161227E+03  0.7546771E-02  0.1077448E+00
       21   -1    0    0  501  502  0.00000000000E+00  0.00000000000E+00  0.64789738478E+03  0.64789738478E+03  0.00000000000E+00 0.  1.
       -1   -1    0    0    0  501  0.00000000000E+00  0.00000000000E+00 -0.87871521029E+02  0.87871521029E+02  0.00000000000E+00 0.  1.
       23    2    1    2    0    0  0.75981602896E+02 -0.58534252829E+02  0.14458722896E+03  0.19578420203E+03  0.90700188827E+02 0.  0.
       23    2    1    2    0    0 -0.99753018945E+02  0.67513921112E+02  0.33285788314E+02  0.15458552668E+03  0.90994214219E+02 0.  0.
      -11    1    3    3    0    0  0.61181627990E+02  0.31401237647E+01  0.39033840081E+02  0.72640846996E+02  0.00000000000E+00 0.  1.
       11    1    3    3    0    0  0.14799974906E+02 -0.61674376594E+02  0.10555338887E+03  0.12314335503E+03  0.00000000000E+00 0. -1.
      -13    1    4    4    0    0 -0.11679010090E+03  0.56858690701E+02  0.22669337668E+02  0.13185877766E+03  0.00000000000E+00 0.  1.
       13    1    4    4    0    0  0.17037081951E+02  0.10655230411E+02  0.10616450645E+02  0.22726749016E+02  0.00000000000E+00 0. -1.
       21    1    1    2  503  502  0.26045341001E+02  0.77343822038E+00  0.36158621355E+03  0.36252385828E+03  0.00000000000E+00 0.  1.
       -1    1    1    2    0  503 -0.22739249525E+01 -0.97531065031E+01  0.20566632936E+02  0.22875318827E+02  0.00000000000E+00 0.  1.
<mgrwt>
<rscale>  2 0.31612271E+03</rscale>
<asrwt>0</asrwt>
<pdfrwt beam="1">  1       21 0.99676521E-01 0.31612271E+03</pdfrwt>
<pdfrwt beam="2">  1       -1 0.13518696E-01 0.31612271E+03</pdfrwt>
<totfact> 0.27319277E+03</totfact>
</mgrwt>
</event>
<event>
10   0  0.3368750E-06  0.1719475E+03  0.7546771E-02  0.1175974E+00
        1   -1    0    0  502    0  0.00000000000E+00  0.00000000000E+00  0.21325661580E+03  0.21325661580E+03  0.00000000000E+00 0. -1.
       -1   -1    0    0    0  501  0.00000000000E+00  0.00000000000E+00 -0.25074048686E+03  0.25074048686E+03  0.00000000000E+00 0.  1.
       23    2    1    2    0    0 -0.88157989605E+02 -0.12732889663E+03 -0.71265680824E+02  0.19456288489E+03  0.93762678437E+02 0.  0.
       23    2    1    2    0    0  0.43065772591E+02  0.13392312632E+03  0.76642841891E+02  0.18613319827E+03  0.94770131111E+02 0.  0.
      -11    1    4    4    0    0  0.10655047503E+01 -0.12927961104E+02  0.18730104856E+02  0.22783421749E+02  0.00000000000E+00 0. -1.
       11    1    4    4    0    0  0.42000267841E+02  0.14685108743E+03  0.57912737034E+02  0.16334977652E+03  0.00000000000E+00 0.  1.
      -13    1    3    3    0    0  0.71751659015E+01 -0.60236615482E+02 -0.43725588268E+02  0.74778739758E+02  0.00000000000E+00 0.  1.
       13    1    3    3    0    0 -0.95333155506E+02 -0.67092281144E+02 -0.27540092556E+02  0.11978414514E+03  0.00000000000E+00 0. -1.
       21    1    1    2  502  503  0.43106486751E+02  0.12396492500E+02 -0.11042349861E+02  0.46192810229E+02  0.00000000000E+00 0.  1.
       21    1    1    2  503  501  0.19857302625E+01 -0.18990722199E+02 -0.31818682270E+02  0.37108209277E+02  0.00000000000E+00 0. -1.
<mgrwt>
<rscale>  2 0.17180906E+03</rscale>
<asrwt>0</asrwt>
<pdfrwt beam="1">  1        1 0.32808710E-01 0.17194753E+03</pdfrwt>
<pdfrwt beam="2">  1       -1 0.38575460E-01 0.17194753E+03</pdfrwt>
<totfact> 0.88764263E+02</totfact>
</mgrwt>
</event>
<event>
10   0  0.3368750E-06  0.1522896E+03  0.7546771E-02  0.1197869E+00
        4   -1    0    0  503    0  0.00000000000E+00  0.00000000000E+00  0.51318409281E+03  0.51318409281E+03  0.00000000000E+00 0. -1.
       -4   -1    0    0    0  501  0.00000000000E+00  0.00000000000E+00 -0.70266557334E+02  0.70266557334E+02  0.00000000000E+00 0.  1.
       23    2    1    2    0    0 -0.23750485210E+02 -0.10840696993E+03  0.16966924569E+03  0.22279194174E+03  0.92371205995E+02 0.  0.
       23    2    1    2    0    0  0.57773095572E+02  0.11956810765E+03  0.19034678626E+03  0.25016203460E+03  0.93353530080E+02 0.  0.
      -11    1    4    4    0    0  0.14025999351E+02  0.27306665969E+02  0.12550696034E+03  0.12920673264E+03  0.00000000000E+00 0. -1.
       11    1    4    4    0    0  0.43747096221E+02  0.92261441682E+02  0.64839825916E+02  0.12095530197E+03  0.00000000000E+00 0.  1.
      -13    1    3    3    0    0 -0.28961670151E+02  0.43137360407E+01  0.20472130651E+02  0.35728067258E+02  0.00000000000E+00 0.  1.
       13    1    3    3    0    0  0.52111849408E+01 -0.11272070597E+03  0.14919711503E+03  0.18706387448E+03  0.00000000000E+00 0. -1.
       21    1    1    2  502  501 -0.18242411434E+02 -0.18735497806E+02  0.39372204973E+00  0.26152618799E+02  0.00000000000E+00 0. -1.
       21    1    1    2  503  502 -0.15780198928E+02  0.75743600826E+01  0.82507781484E+02  0.84344055003E+02  0.00000000000E+00 0.  1.
<mgrwt>
<rscale>  2 0.15213934E+03</rscale>
<asrwt>0</asrwt>
<pdfrwt beam="1">  1        4 0.78951399E-01 0.15228961E+03</pdfrwt>
<pdfrwt beam="2">  1       -4 0.10810240E-01 0.15228961E+03</pdfrwt>
<totfact> 0.16585765E+02</totfact>
</mgrwt>
</event>
<event>
10   0  0.3368750E-06  0.2852583E+03  0.7546771E-02  0.1133237E+00
       21   -1    0    0  503  502  0.00000000000E+00  0.00000000000E+00  0.31223037999E+03  0.31223037999E+03  0.00000000000E+00 0. -1.
        2   -1    0    0  502    0  0.00000000000E+00  0.00000000000E+00 -0.11530355002E+04  0.11530355002E+04  0.00000000000E+00 0. -1.
       23    2    1    2    0    0  0.47631352256E+02  0.12167220845E+02 -0.78096167801E+03  0.78768732459E+03  0.90185319345E+02 0.  0.
       23    2    1    2    0    0 -0.47207947219E+01 -0.65696756123E+02 -0.35387580650E+03  0.37110333240E+03  0.90284257912E+02 0.  0.
      -11    1    3    3    0    0  0.49164017787E+02 -0.16891419009E+02 -0.69485051283E+03  0.69679240514E+03  0.00000000000E+00 0. -1.
       11    1    3    3    0    0 -0.15326655313E+01  0.29058639854E+02 -0.86111165173E+02  0.90894919446E+02  0.00000000000E+00 0.  1.
      -13    1    4    4    0    0  0.27726313216E+02 -0.10801460552E+02 -0.35115901050E+02  0.46027671038E+02  0.00000000000E+00 0.  1.
       13    1    4    4    0    0 -0.32447107938E+02 -0.54895295571E+02 -0.31875990545E+03  0.32507566136E+03  0.00000000000E+00 0. -1.
       21    1    1    2  503  501 -0.18118877702E+02  0.38374097048E+02  0.25093087431E+03  0.25449394636E+03  0.00000000000E+00 0. -1.
        2    1    1    2  501    0 -0.24791679832E+02  0.15155438230E+02  0.43101490011E+02  0.51981276803E+02  0.00000000000E+00 0. -1.
<mgrwt>
<rscale>  2 0.22086913E+03</rscale>
<asrwt>0</asrwt>
<pdfrwt beam="1">  1       21 0.48035443E-01 0.28525826E+03</pdfrwt>
<pdfrwt beam="2">  1        2 0.17739008E+00 0.28525826E+03</pdfrwt>
<totfact> 0.10731393E+03</totfact>
</mgrwt>
</event>
<event>
10   0  0.3368750E-06  0.1081740E+03  0.7546771E-02  0.1267803E+00
       21   -1    0    0  501  502  0.00000000000E+00  0.00000000000E+00  0.78153525557E+02  0.78153525557E+02  0.00000000000E+00 0.  1.
        1   -1    0    0  503    0  0.00000000000E+00  0.00000000000E+00 -0.20958807674E+03  0.20958807674E+03  0.00000000000E+00 0. -1.
       23    2    1    2    0    0  0.41076057937E+02  0.11879210468E+02 -0.69769359685E+02  0.12895958320E+03  0.99671723031E+02 0.  0.
       23    2    1    2    0    0 -0.40100596749E+02 -0.10207574071E+02 -0.63988071060E+02  0.11885409521E+03  0.91211678435E+02 0.  0.
      -11    1    4    4    0    0  0.26070513060E+02  0.10647529467E+02 -0.31474521426E+02  0.42233719158E+02  0.00000000000E+00 0. -1.
       11    1    4    4    0    0 -0.66171109809E+02 -0.20855103539E+02 -0.32513549634E+02  0.76620376055E+02  0.00000000000E+00 0.  1.
      -13    1    3    3    0    0  0.10811349799E+02  0.53932793968E+02 -0.47059116921E+02  0.72389170703E+02  0.00000000000E+00 0.  1.
       13    1    3    3    0    0  0.30264708139E+02 -0.42053583500E+02 -0.22710242764E+02  0.56570412499E+02  0.00000000000E+00 0. -1.
       21    1    1    2  503  502  0.36262692692E+01 -0.16205381697E+02 -0.10803062812E+02  0.19810865475E+02  0.00000000000E+00 0.  1.
        1    1    1    2  501    0 -0.46017304576E+01  0.14533745300E+02  0.13125942374E+02  0.20117058405E+02  0.00000000000E+00 0. -1.
<mgrwt>
<rscale>  2 0.10618450E+03</rscale>
<asrwt>0</asrwt>
<pdfrwt beam="1">  1       21 0.12023619E-01 0.10817403E+03</pdfrwt>
<pdfrwt beam="2">  1        1 0.32244319E-01 0.10817403E+03</pdfrwt>
<totfact> 0.86286785E+04</totfact>
</mgrwt>
</event>
<event>
10   0  0.3368750E-06  0.1192295E+03  0.7546771E-02  0.1246737E+00
        1   -1    0    0  503    0  0.00000000000E+00  0.00000000000E+00  0.60315051358E+02  0.60315051358E+02  0.00000000000E+00 0. -1.
       -1   -1    0    0    0  501  0.00000000000E+00  0.00000000000E+00 -0.82079332524E+03  0.82079332524E+03  0.00000000000E+00 0.  1.
       23    2    1    2    0    0 -0.73956503367E+02 -0.24997940993E+02 -0.40401479487E+03  0.42280817360E+03  0.97181972293E+02 0.  0.
       23    2    1    2    0    0  0.63322120746E+02  0.12127907516E+01 -0.39552069837E+03  0.41061207912E+03  0.90302241647E+02 0.  0.
      -11    1    4    4    0    0 -0.91846479496E+01  0.29615576017E+02 -0.85093988544E+02  0.90567251185E+02  0.00000000000E+00 0.  1.
       11    1    4    4    0    0  0.72506768696E+02 -0.28402785266E+02 -0.31042670983E+03  0.32004482794E+03  0.00000000000E+00 0. -1.
      -13    1    3    3    0    0 -0.33089289247E+01 -0.48641310679E+02 -0.12981941832E+03  0.13867230253E+03  0.00000000000E+00 0. -1.
       13    1    3    3    0    0 -0.70647574442E+02  0.23643369686E+02 -0.27419537655E+03  0.28413587107E+03  0.00000000000E+00 0.  1.
       21    1    1    2  502  501  0.27637669280E+01  0.13406749967E+02  0.25148909965E+02  0.28632970938E+02  0.00000000000E+00 0. -1.
       21    1    1    2  503  502  0.78706156924E+01  0.10378400275E+02  0.13908309392E+02  0.19055152946E+02  0.00000000000E+00 0. -1.
<mgrwt>
<rscale>  2 0.11782026E+03</rscale>
<asrwt>0</asrwt>
<pdfrwt beam="1">  1        1 0.92792387E-02 0.11922946E+03</pdfrwt>
<pdfrwt beam="2">  1       -1 0.12627590E+00 0.11922946E+03</pdfrwt>
<totfact> 0.41510245E+02</totfact>
</mgrwt>
</event>
<event>
10   0  0.3368750E-06  0.1119800E+03  0.7546771E-02  0.1257865E+00
       -1   -1    0    0    0  501  0.00000000000E+00  0.00000000000E+00  0.25533486413E+03  0.25533486413E+03  0.00000000000E+00 0.  1.
        1   -1    0    0  502    0  0.00000000000E+00  0.00000000000E+00 -0.22025834241E+03  0.22025834241E+03  0.00000000000E+00 0. -1.
       23    2    1    2    0    0  0.57692749553E+02 -0.28929737044E+02 -0.12716991174E+03  0.16909324919E+03  0.90856796299E+02 0.  0.
       23    2    1    2    0    0 -0.63545027686E+02 -0.97082926885E+01 -0.13968946009E+02  0.11414423028E+03  0.93282111693E+02 0.  0.
      -11    1    3    3    0    0  0.60361483425E+02 -0.24870352632E+01 -0.28298383223E+02  0.66712011802E+02  0.00000000000E+00 0.  1.
       11    1    3    3    0    0 -0.26687338724E+01 -0.26442701781E+02 -0.98871528519E+02  0.10238123739E+03  0.00000000000E+00 0. -1.
      -13    1    4    4    0    0 -0.70090918684E+02 -0.30479118109E+02 -0.34824464183E+02  0.83990813953E+02  0.00000000000E+00 0.  1.
       13    1    4    4    0    0  0.65458909982E+01  0.20770825421E+02  0.20855518174E+02  0.30153416323E+02  0.00000000000E+00 0. -1.
        4    1    1    2  502    0 -0.71567563184E+01  0.44216376012E+02  0.17177811219E+03  0.17752190540E+03  0.00000000000E+00 0. -1.
       -4    1    1    2    0  501  0.13009034452E+02 -0.55783462792E+01  0.44372672793E+01  0.14833821675E+02  0.00000000000E+00 0.  1.
<mgrwt>
<rscale>  2 0.11147355E+03</rscale>
<asrwt>0</asrwt>
<pdfrwt beam="1">  1        1 0.33885899E-01 0.11198002E+03</pdfrwt>
<pdfrwt beam="2">  1       -1 0.39282287E-01 0.11198002E+03</pdfrwt>
<totfact> 0.82114551E+02</totfact>
</mgrwt>
</event>
<event>
10   0  0.3368750E-06  0.2624622E+03  0.7546771E-02  0.1105752E+00
        1   -1    0    0  503    0  0.00000000000E+00  0.00000000000E+00  0.78966759256E+03  0.78966759256E+03  0.00000000000E+00 0. -1.
       -1   -1    0    0    0  501  0.00000000000E+00  0.00000000000E+00 -0.18746371221E+03  0.18746371221E+03  0.00000000000E+00 0.  1.
       23    2    1    2    0    0 -0.15141822853E+03  0.21017860330E+03  0.73407909587E+02  0.28394141893E+03  0.90174735794E+02 0.  0.
       23    2    1    2    0    0  0.21738812695E+03 -0.10202251628E+03  0.45802917979E+03  0.52523241089E+03  0.91717851824E+02 0.  0.
      -11    1    4    4    0    0  0.19332107803E+00 -0.23981038773E+02  0.67156539936E+02  0.71310086593E+02  0.00000000000E+00 0.  1.
       11    1    4    4    0    0  0.21719480587E+03 -0.78041477504E+02  0.39087263985E+03  0.45392232430E+03  0.00000000000E+00 0. -1.
      -13    1    3    3    0    0 -0.14175658547E+03  0.14299874244E+03  0.30517069006E+02  0.20365377817E+03  0.00000000000E+00 0.  1.
       13    1    3    3    0    0 -0.96616430606E+01  0.67179860861E+02  0.42890840582E+02  0.80287640753E+02  0.00000000000E+00 0. -1.
       21    1    1    2  502  501 -0.81172063096E+02 -0.99854630241E+02  0.43853585669E+02  0.13595215329E+03  0.00000000000E+00 0.  1.
       21    1    1    2  503  502  0.15202164684E+02 -0.83014567805E+01  0.26913205294E+02  0.32005321666E+02  0.00000000000E+00 0. -1.
<mgrwt>
<rscale>  2 0.26232832E+03</rscale>
<asrwt>0</asrwt>
<pdfrwt beam="1">  1        1 0.12148732E+00 0.26246224E+03</pdfrwt>
<pdfrwt beam="2">  1       -1 0.28840571E-01 0.26246224E+03</pdfrwt>
<totfact> 0.25956750E+02</totfact>
</mgrwt>
</event>
<event>
10   0  0.3368750E-06  0.1233728E+03  0.7546771E-02  0.1240010E+00
       21   -1    0    0  503  502  0.00000000000E+00  0.00000000000E+00  0.36163149005E+02  0.36163149005E+02  0.00000000000E+00 0.  1.
        2   -1    0    0  502    0  0.00000000000E+00  0.00000000000E+00 -0.67966472545E+03  0.67966472545E+03  0.00000000000E+00 0. -1.
       23    2    1    2    0    0  0.13335245446E+02  0.78337753491E+02 -0.32867527780E+03  0.34994822309E+03  0.90120409525E+02 0.  0.
       23    2    1    2    0    0 -0.48963164970E+02 -0.56300945065E+02 -0.14251929693E+03  0.18815775057E+03  0.97593038497E+02 0.  0.
      -11    1    4    4    0    0 -0.75796393648E+02 -0.31197980706E+02 -0.11911697762E+03  0.14459343570E+03  0.00000000000E+00 0.  1.
       11    1    4    4    0    0  0.26833228678E+02 -0.25102964359E+02 -0.23402319305E+02  0.43564314866E+02  0.00000000000E+00 0. -1.
      -13    1    3    3    0    0  0.43175442189E+02  0.56505640294E+02 -0.27961086224E+03  0.28851211495E+03  0.00000000000E+00 0. -1.
       13    1    3    3    0    0 -0.29840196743E+02  0.21832113197E+02 -0.49064415558E+02  0.61436108132E+02  0.00000000000E+00 0.  1.
       21    1    1    2  503  501  0.11718760306E+02 -0.29018816615E+01 -0.65864600768E+02  0.66961898828E+02  0.00000000000E+00 0. -1.
        2    1    1    2  501    0  0.23909159218E+02 -0.19134926764E+02 -0.10644240095E+03  0.11076000197E+03  0.00000000000E+00 0. -1.
<mgrwt>
<rscale>  2 0.12189070E+03</rscale>
<asrwt>0</asrwt>
<pdfrwt beam="1">  1       21 0.55635614E-02 0.12337275E+03</pdfrwt>
<pdfrwt beam="2">  1        2 0.10456380E+00 0.12337275E+03</pdfrwt>
<totfact> 0.12191426E+05</totfact>
</mgrwt>
</event>
<event>
10   0  0.3368750E-06  0.1691289E+03  0.7546771E-02  0.1179811E+00
        3   -1    0    0  503    0  0.00000000000E+00  0.00000000000E+00  0.73932012378E+03  0.73932012378E+03  0.00000000000E+00 0. -1.
       21   -1    0    0  501  502  0.00000000000E+00  0.00000000000E+00 -0.47025228324E+03  0.47025228324E+03  0.00000000000E+00 0.  1.
       23    2    1    2    0    0 -0.86596270102E+02  0.64240210840E+02 -0.34737664354E+03  0.37700265844E+03  0.99170324757E+02 0.  0.
       23    2    1    2    0    0  0.84627277790E+02 -0.13237217750E+03  0.76499119594E+02  0.20418984773E+03  0.10562769096E+03 0.  0.
      -11    1    4    4    0    0  0.29294898801E+02 -0.70888895690E+02  0.92265794288E+02  0.11998501333E+03  0.00000000000E+00 0. -1.
       11    1    4    4    0    0  0.55332378989E+02 -0.61483281807E+02 -0.15766674693E+02  0.84204834405E+02  0.00000000000E+00 0.  1.
      -13    1    3    3    0    0  0.34844934728E+01  0.54193956933E+02 -0.10458157499E+03  0.11784070812E+03  0.00000000000E+00 0. -1.
       13    1    3    3    0    0 -0.90080763575E+02  0.10046253908E+02 -0.24279506855E+03  0.25916195032E+03  0.00000000000E+00 0.  1.
       21    1    1    2  503  502  0.32896730681E+02  0.65475424619E+02  0.57609219638E+03  0.58073354031E+03  0.00000000000E+00 0. -1.
        3    1    1    2  501    0 -0.30927738369E+02  0.26565420379E+01 -0.36146831895E+02  0.47646360535E+02  0.00000000000E+00 0. -1.
<mgrwt>
<rscale>  2 0.16813116E+03</rscale>
<asrwt>0</asrwt>
<pdfrwt beam="1">  1       21 0.72346505E-01 0.16912892E+03</pdfrwt>
<pdfrwt beam="2">  1        3 0.11374156E+00 0.16912892E+03</pdfrwt>
<totfact> 0.57899068E+01</totfact>
</mgrwt>
</event>
<event>
10   0  0.3368750E-06  0.1095243E+03  0.7546771E-02  0.1263111E+00
       -1   -1    0    0    0  501  0.00000000000E+00  0.00000000000E+00  0.52852571593E+03  0.52852571593E+03  0.00000000000E+00 0.  1.
        1   -1    0    0  503    0  0.00000000000E+00  0.00000000000E+00 -0.17264576259E+03  0.17264576259E+03  0.00000000000E+00 0. -1.
       23    2    1    2    0    0  0.59397128537E+02  0.30981948725E+02  0.13780863878E+03  0.17671679586E+03  0.88032408755E+02 0.  0.
       23    2    1    2    0    0 -0.36554953156E+02 -0.36382875041E+02  0.76224935861E+02  0.13028470081E+03  0.92216507321E+02 0.  0.
      -11    1    4    4    0    0 -0.43203037647E+02  0.78902701532E+01  0.24468852282E+01  0.43985748514E+02  0.00000000000E+00 0.  1.
       11    1    4    4    0    0  0.66480844909E+01 -0.44273145194E+02  0.73778050633E+02  0.86298952299E+02  0.00000000000E+00 0. -1.
      -13    1    3    3    0    0  0.37161621431E+01 -0.27786349718E+02  0.23144961579E+02  0.36353546432E+02  0.00000000000E+00 0. -1.
       13    1    3    3    0    0  0.55680966394E+02  0.58768298444E+02  0.11466367720E+03  0.14036324943E+03  0.00000000000E+00 0.  1.
       21    1    1    2  502  501 -0.90936593898E+01  0.42445873917E+01  0.26753661050E+03  0.26772476374E+03  0.00000000000E+00 0.  1.
       21    1    1    2  503  502 -0.13748515991E+02  0.11563389236E+01 -0.12569023180E+03  0.12644521810E+03  0.00000000000E+00 0. -1.
<mgrwt>
<rscale>  2 0.10863888E+03</rscale>
<asrwt>0</asrwt>
<pdfrwt beam="1">  1        1 0.26560887E-01 0.10952427E+03</pdfrwt>
<pdfrwt beam="2">  1       -1 0.81311649E-01 0.10952427E+03</pdfrwt>
<totfact> 0.28399137E+02</totfact>
</mgrwt>
</event>
<event>
10   0  0.3368750E-06  0.1300247E+03  0.7546771E-02  0.1228649E+00
       -1   -1    0    0    0  501  0.00000000000E+00  0.00000000000E+00  0.19813698257E+03  0.19813698257E+03  0.00000000000E+00 0.  1.
        1   -1    0    0  503    0  0.00000000000E+00  0.00000000000E+00 -0.17650098310E+03  0.17650098310E+03  0.00000000000E+00 0. -1.
       23    2    1    2    0    0 -0.42264610623E+02  0.44524832151E+02 -0.98952282011E+02  0.14562629672E+03  0.87445446942E+02 0.  0.
       23    2    1    2    0    0  0.56675274575E+02 -0.81286317427E+02  0.12915025243E+03  0.18704446994E+03  0.92121082726E+02 0.  0.
      -11    1    4    4    0    0  0.69082093933E+02 -0.84921928064E+02  0.13418051401E+03  0.17317182192E+03  0.00000000000E+00 0.  1.
       11    1    4    4    0    0 -0.12406819357E+02  0.36356106373E+01 -0.50302615835E+01  0.13872648012E+02  0.00000000000E+00 0. -1.
      -13    1    3    3    0    0 -0.27246088277E+02 -0.24221579872E+02 -0.35093421806E+02  0.50602198687E+02  0.00000000000E+00 0.  1.
       13    1    3    3    0    0 -0.15018522345E+02  0.68746412023E+02 -0.63858860205E+02  0.95024098029E+02  0.00000000000E+00 0. -1.
       21    1    1    2  502  501 -0.68549003392E+01  0.25301499679E+02 -0.10231001787E+02  0.28139455258E+02  0.00000000000E+00 0. -1.
       21    1    1    2  503  502 -0.75557636132E+01  0.11459985597E+02  0.16690308353E+01  0.13827743763E+02  0.00000000000E+00 0. -1.
<mgrwt>
<rscale>  2 0.12919941E+03</rscale>
<asrwt>0</asrwt>
<pdfrwt beam="1">  1        1 0.27153997E-01 0.13002465E+03</pdfrwt>
<pdfrwt beam="2">  1       -1 0.30482613E-01 0.13002465E+03</pdfrwt>
<totfact> 0.16727018E+03</totfact>
</mgrwt>
</event>
<event>
10   0  0.3368750E-06  0.1316061E+03  0.7546771E-02  0.1226101E+00
        3   -1    0    0  502    0  0.00000000000E+00  0.00000000000E+00  0.34081564465E+03  0.34081564465E+03  0.00000000000E+00 0. -1.
       21   -1    0    0  503  502  0.00000000000E+00  0.00000000000E+00 -0.24023704087E+03  0.24023704087E+03  0.00000000000E+00 0. -1.
       23    2    1    2    0    0  0.11548250468E+03 -0.41790172067E+02  0.15341823369E+03  0.21626328753E+03  0.90277504034E+02 0.  0.
       23    2    1    2    0    0 -0.69541775572E+02 -0.48906031881E+02  0.10612580495E+03  0.16538629256E+03  0.94138625368E+02 0.  0.
      -11    1    3    3    0    0  0.15503866981E+02  0.24848236072E+02  0.14784447775E+02  0.32808301133E+02  0.00000000000E+00 0.  1.
       11    1    3    3    0    0  0.99978637702E+02 -0.66638408139E+02  0.13863378591E+03  0.18345498639E+03  0.00000000000E+00 0. -1.
      -13    1    4    4    0    0 -0.75525646340E+02 -0.70822164755E+02  0.92858232908E+02  0.13907750966E+03  0.00000000000E+00 0. -1.
       13    1    4    4    0    0  0.59838707682E+01  0.21916132874E+02  0.13267572041E+02  0.26308782894E+02  0.00000000000E+00 0.  1.
       21    1    1    2  503  501  0.58588372060E+01  0.13828161425E+02  0.42014749917E+00  0.15023998992E+02  0.00000000000E+00 0. -1.
        3    1    1    2  501    0 -0.51799566317E+02  0.76868042523E+02 -0.15938558235E+03  0.18437910645E+03  0.00000000000E+00 0. -1.
<mgrwt>
<rscale>  2 0.13091732E+03</rscale>
<asrwt>0</asrwt>
<pdfrwt beam="1">  1       21 0.36959545E-01 0.13160611E+03</pdfrwt>
<pdfrwt beam="2">  1        3 0.52433176E-01 0.13160611E+03</pdfrwt>
<totfact> 0.12666778E+03</totfact>
</mgrwt>
</event>
<event>
10   0  0.3368750E-06  0.3148404E+03  0.7546771E-02  0.1121022E+00
       21   -1    0    0  501  502  0.00000000000E+00  0.00000000000E+00  0.10712932043E+03  0.10712932043E+03  0.00000000000E+00 0. -1.
       -2   -1    0    0    0  501  0.00000000000E+00  0.00000000000E+00 -0.10165479478E+04  0.10165479478E+04  0.00000000000E+00 0.  1.
       23    2    1    2    0    0  0.26683684579E+01 -0.45353102600E+02 -0.21163355180E+03  0.23469031339E+03  0.90701482056E+02 0.  0.
       23    2    1    2    0    0 -0.92066309760E+02  0.96522441832E+02 -0.66017925376E+03  0.67988872595E+03  0.92839891269E+02 0.  0.
      -11    1    4    4    0    0 -0.29201199724E+02 -0.89196787115E+01 -0.24635904850E+03  0.24824393549E+03  0.00000000000E+00 0.  1.
       11    1    4    4    0    0 -0.62865110036E+02  0.10544212054E+03 -0.41382020527E+03  0.43164479046E+03  0.00000000000E+00 0. -1.
      -13    1    3    3    0    0 -0.20559715914E+02  0.21993400173E+02 -0.67644242063E+02  0.74041576523E+02  0.00000000000E+00 0. -1.
       13    1    3    3    0    0  0.23228084372E+02 -0.67346502774E+02 -0.14398930973E+03  0.16064873687E+03  0.00000000000E+00 0.  1.
       21    1    1    2  503  502 -0.67820191630E+01 -0.13649492358E+02  0.63076982791E+02  0.64892296797E+02  0.00000000000E+00 0. -1.
       -2    1    1    2    0  503  0.96179960465E+02 -0.37519846874E+02 -0.10068280458E+03  0.14420593207E+03  0.00000000000E+00 0.  1.
<mgrwt>
<rscale>  2 0.23816447E+03</rscale>
<asrwt>0</asrwt>
<pdfrwt beam="1">  1       21 0.16481434E-01 0.31484038E+03</pdfrwt>
<pdfrwt beam="2">  1       -2 0.15639199E+00 0.31484038E+03</pdfrwt>
<totfact> 0.75313070E+02</totfact>
</mgrwt>
</event>
<event>
10   0  0.3368750E-06  0.1140866E+03  0.7546771E-02  0.1254873E+00
       -1   -1    0    0    0  501  0.00000000000E+00  0.00000000000E+00  0.23320833782E+02  0.23320833782E+02  0.00000000000E+00 0.  1.
        1   -1    0    0  503    0  0.00000000000E+00  0.00000000000E+00 -0.25576169900E+04  0.25576169900E+04  0.00000000000E+00 0. -1.
       23    2    1    2    0    0 -0.47833393348E+02 -0.10255533476E+02 -0.16132829947E+04  0.16166134118E+04  0.91453227223E+02 0.  0.
       23    2    1    2    0    0  0.11969125393E+03 -0.14203237527E+02 -0.82607027364E+03  0.84031409982E+03  0.95958121805E+02 0.  0.
      -11    1    3    3    0    0 -0.73237961375E+02 -0.82382955264E+01 -0.13744702779E+04  0.13764447731E+04  0.00000000000E+00 0. -1.
       11    1    3    3    0    0  0.25404568027E+02 -0.20172379499E+01 -0.23881271681E+03  0.24016863874E+03  0.00000000000E+00 0.  1.
      -13    1    4    4    0    0  0.27270219547E+02 -0.12435916490E+01 -0.38288267223E+02  0.47023428216E+02  0.00000000000E+00 0.  1.
       13    1    4    4    0    0  0.92421034385E+02 -0.12959645878E+02 -0.78778200641E+03  0.79329067160E+03  0.00000000000E+00 0. -1.
       21    1    1    2  502  501 -0.62547873016E+02  0.19900184325E+02 -0.65215424597E+02  0.92527322237E+02  0.00000000000E+00 0.  1.
       21    1    1    2  503  502 -0.93099875683E+01  0.45585866784E+01 -0.29727463331E+02  0.31482989965E+02  0.00000000000E+00 0. -1.
<mgrwt>
<rscale>  2 0.11313423E+03</rscale>
<asrwt>0</asrwt>
<pdfrwt beam="1">  1        1 0.39347954E+00 0.11408663E+03</pdfrwt>
<pdfrwt beam="2">  1       -1 0.35878206E-02 0.11408663E+03</pdfrwt>
<totfact> 0.43702624E+02</totfact>
</mgrwt>
</event>
<event>
10   0  0.3368750E-06  0.1017868E+03  0.7546771E-02  0.1276835E+00
       21   -1    0    0  503  502  0.00000000000E+00  0.00000000000E+00  0.12931299506E+02  0.12931299506E+02  0.00000000000E+00 0.  1.
       -1   -1    0    0    0  501  0.00000000000E+00  0.00000000000E+00 -0.16436671530E+04  0.16436671530E+04  0.00000000000E+00 0.  1.
       23    2    1    2    0    0  0.52191356768E+02 -0.60022921788E+02 -0.47363907075E+03  0.48773375452E+03  0.84991511898E+02 0.  0.
       23    2    1    2    0    0 -0.30797382472E+02  0.24450487857E+02 -0.92264621339E+03  0.92744028776E+03  0.85575388641E+02 0.  0.
      -11    1    4    4    0    0 -0.89850322233E+00 -0.29268261001E+02 -0.19301338228E+03  0.19522193563E+03  0.00000000000E+00 0.  1.
       11    1    4    4    0    0 -0.29898879249E+02  0.53718748859E+02 -0.72963283111E+03  0.73221835213E+03  0.00000000000E+00 0. -1.
      -13    1    3    3    0    0  0.66831016711E+00 -0.30410275773E+02 -0.34143677099E+03  0.34278900229E+03  0.00000000000E+00 0.  1.
       13    1    3    3    0    0  0.51523046601E+02 -0.29612646015E+02 -0.13220229976E+03  0.14494475222E+03  0.00000000000E+00 0. -1.
       21    1    1    2  503  501 -0.10326786654E+02  0.72204261347E+01 -0.16641630765E+03  0.16689267368E+03  0.00000000000E+00 0.  1.
       -1    1    1    2    0  502 -0.11067187643E+02  0.28352007796E+02 -0.68034261727E+02  0.74531736577E+02  0.00000000000E+00 0.  1.
<mgrwt>
<rscale>  2 0.10166395E+03</rscale>
<asrwt>0</asrwt>
<pdfrwt beam="1">  1       21 0.19894307E-02 0.10178677E+03</pdfrwt>
<pdfrwt beam="2">  1       -1 0.25287187E+00 0.10178677E+03</pdfrwt>
<totfact> 0.91490147E+03</totfact>
</mgrwt>
</event>
<event>
10   0  0.3368750E-06  0.9236633E+02  0.7546771E-02  0.1300539E+00
        2   -1    0    0  502    0  0.00000000000E+00  0.00000000000E+00  0.53924769300E+03  0.53924769300E+03  0.00000000000E+00 0. -1.
       -2   -1    0    0    0  501  0.00000000000E+00  0.00000000000E+00 -0.24622576838E+02  0.24622576838E+02  0.00000000000E+00 0.  1.
       23    2    1    2    0    0  0.29471455940E+02  0.27309848958E+01  0.15271573924E+03  0.17730573948E+03  0.85083507496E+02 0.  0.
       23    2    1    2    0    0  0.70792965389E+01 -0.18451056059E+02  0.24726128144E+03  0.26410606816E+03  0.90682501251E+02 0.  0.
      -11    1    3    3    0    0  0.31984288105E+02 -0.20717352378E+02  0.14854746880E+03  0.15335760125E+03  0.00000000000E+00 0. -1.
       11    1    3    3    0    0 -0.25128321644E+01  0.23448337274E+02  0.41682704462E+01  0.23948138235E+02  0.00000000000E+00 0.  1.
      -13    1    4    4    0    0  0.29498956267E+02  0.22269739509E+02  0.54723206258E+02  0.66036043354E+02  0.00000000000E+00 0. -1.
       13    1    4    4    0    0 -0.22419659728E+02 -0.40720795568E+02  0.19253807518E+03  0.19807002481E+03  0.00000000000E+00 0.  1.
        3    1    1    2  502    0 -0.30288890937E+02  0.55614170410E+01  0.88810107801E+02  0.93997774024E+02  0.00000000000E+00 0. -1.
       -3    1    1    2    0  501 -0.62618615417E+01  0.10158654122E+02  0.25837987683E+02  0.28460688169E+02  0.00000000000E+00 0.  1.
<mgrwt>
<rscale>  2 0.90962030E+02</rscale>
<asrwt>0</asrwt>
<pdfrwt beam="1">  1        2 0.82961184E-01 0.92366334E+02</pdfrwt>
<pdfrwt beam="2">  1       -2 0.37880887E-02 0.92366334E+02</pdfrwt>
<totfact> 0.15593333E+04</totfact>
</mgrwt>
</event>
<event>
10   0  0.3368750E-06  0.1011123E+03  0.7546771E-02  0.1278992E+00
       -1   -1    0    0    0  501  0.00000000000E+00  0.00000000000E+00  0.61837375323E+03  0.61837375323E+03  0.00000000000E+00 0.  1.
        1   -1    0    0  502    0  0.00000000000E+00  0.00000000000E+00 -0.36317633874E+02  0.36317633874E+02  0.00000000000E+00 0. -1.
       23    2    1    2    0    0 -0.18039551463E+01 -0.41851565314E+02  0.76455594453E+02  0.12525552362E+03  0.89937091901E+02 0.  0.
       23    2    1    2    0    0  0.17822546288E+02  0.39948066476E+02  0.29781481146E+03  0.31477806468E+03  0.92076473143E+02 0.  0.
      -11    1    3    3    0    0  0.32913824001E+02 -0.24364676756E+02  0.16870346102E+01  0.40985404348E+02  0.00000000000E+00 0.  1.
       11    1    3    3    0    0 -0.34717779147E+02 -0.17486888558E+02  0.74768559843E+02  0.84270119268E+02  0.00000000000E+00 0. -1.
      -13    1    4    4    0    0  0.48095619595E+02  0.38520735679E+02  0.25488925852E+03  0.26223190082E+03  0.00000000000E+00 0.  1.
       13    1    4    4    0    0 -0.30273073306E+02  0.14273307969E+01  0.42925552947E+02  0.52546163860E+02  0.00000000000E+00 0. -1.
       21    1    1    2  502  503 -0.22759751753E+02 -0.19353278562E+02  0.14455380202E+03  0.14760879842E+03  0.00000000000E+00 0.  1.
       21    1    1    2  503  501  0.67411606110E+01  0.21256777400E+02  0.63231911417E+02  0.67049000389E+02  0.00000000000E+00 0.  1.
<mgrwt>
<rscale>  2 0.10062271E+03</rscale>
<asrwt>0</asrwt>
<pdfrwt beam="1">  1        1 0.55873283E-02 0.10111232E+03</pdfrwt>
<pdfrwt beam="2">  1       -1 0.95134424E-01 0.10111232E+03</pdfrwt>
<totfact> 0.15468778E+03</totfact>
</mgrwt>
</event>
<event>
10   0  0.3368750E-06  0.1178704E+03  0.7546771E-02  0.1250419E+00
       -2   -1    0    0    0  501  0.00000000000E+00  0.00000000000E+00  0.55695536776E+02  0.55695536776E+02  0.00000000000E+00 0.  1.
        2   -1    0    0  503    0  0.00000000000E+00  0.00000000000E+00 -0.92539801241E+03  0.92539801241E+03  0.00000000000E+00 0. -1.
       23    2    1    2    0    0  0.55264290402E+02 -0.88411030663E+02 -0.72613914777E+03  0.73908050084E+03  0.89951501701E+02 0.  0.
       23    2    1    2    0    0 -0.32367550872E+02  0.47851572122E+02 -0.30952683822E+02  0.11971833754E+03  0.10018473139E+03 0.  0.
      -11    1    3    3    0    0  0.21868010550E+02 -0.82422533972E+02 -0.65192381885E+03  0.65747726164E+03  0.00000000000E+00 0. -1.
       11    1    3    3    0    0  0.33396279853E+02 -0.59884966909E+01 -0.74215328919E+02  0.81603239195E+02  0.00000000000E+00 0.  1.
      -13    1    4    4    0    0  0.24541936661E+02 -0.15104278835E+02  0.15077065420E+01  0.28856872201E+02  0.00000000000E+00 0. -1.
       13    1    4    4    0    0 -0.56909487533E+02  0.62955850958E+02 -0.32460390364E+02  0.90861465340E+02  0.00000000000E+00 0.  1.
       21    1    1    2  502  501 -0.82380186492E+01  0.86707907629E+01 -0.20637940685E+02  0.23853137308E+02  0.00000000000E+00 0.  1.
       21    1    1    2  503  502 -0.14658720881E+02  0.31888667777E+02 -0.91972703361E+02  0.98441573505E+02  0.00000000000E+00 0. -1.
<mgrwt>
<rscale>  2 0.11566821E+03</rscale>
<asrwt>0</asrwt>
<pdfrwt beam="1">  1        2 0.14236892E+00 0.11787035E+03</pdfrwt>
<pdfrwt beam="2">  1       -2 0.85685441E-02 0.11787035E+03</pdfrwt>
<totfact> 0.24424972E+03</totfact>
</mgrwt>
</event>
<event>
10   0  0.3368750E-06  0.1580826E+03  0.7546771E-02  0.1210058E+00
       -1   -1    0    0    0  501  0.00000000000E+00  0.00000000000E+00  0.30724598098E+03  0.30724598098E+03  0.00000000000E+00 0.  1.
       21   -1    0    0  503  502  0.00000000000E+00  0.00000000000E+00 -0.64121444842E+02  0.64121444842E+02  0.00000000000E+00 0.  1.
       23    2    1    2    0    0 -0.28984992099E+02  0.47307898964E+02  0.97413549012E+02  0.14459091657E+03  0.91317942108E+02 0.  0.
       23    2    1    2    0    0  0.49839609454E+02 -0.62285374249E+02  0.10969958506E+03  0.16198476361E+03  0.88552866494E+02 0.  0.
      -11    1    4    4    0    0  0.76863887310E+01 -0.62330766461E+02  0.10101475893E+03  0.11894614976E+03  0.00000000000E+00 0.  1.
       11    1    4    4    0    0  0.42153220724E+02  0.45392211311E-01  0.86848261248E+01  0.43038613856E+02  0.00000000000E+00 0. -1.
      -13    1    3    3    0    0 -0.43880669448E+02 -0.11612025804E+02  0.49834922823E+02  0.67408247472E+02  0.00000000000E+00 0. -1.
       13    1    3    3    0    0  0.14895677349E+02  0.58919924768E+02  0.47578626188E+02  0.77182669093E+02  0.00000000000E+00 0.  1.
       21    1    1    2  503  501 -0.72647616550E+00 -0.15798753720E+02  0.47153197156E+01  0.16503412579E+02  0.00000000000E+00 0.  1.
       -1    1    1    2    0  502 -0.20128141190E+02  0.30776229006E+02  0.31296082347E+02  0.48288333061E+02  0.00000000000E+00 0.  1.
<mgrwt>
<rscale>  2 0.14245910E+03</rscale>
<asrwt>0</asrwt>
<pdfrwt beam="1">  1       21 0.98648377E-02 0.15808260E+03</pdfrwt>
<pdfrwt beam="2">  1       -1 0.47268612E-01 0.15808260E+03</pdfrwt>
<totfact> 0.34921385E+04</totfact>
</mgrwt>
</event>
<event>
10   0  0.3368750E-06  0.3298706E+03  0.7546771E-02  0.1085152E+00
       21   -1    0    0  501  502  0.00000000000E+00  0.00000000000E+00  0.36711246511E+03  0.36711246511E+03  0.00000000000E+00 0. -1.
       21   -1    0    0  502  503  0.00000000000E+00  0.00000000000E+00 -0.64742837525E+03  0.64742837525E+03  0.00000000000E+00 0.  1.
       23    2    1    2    0    0  0.25933803882E+02 -0.97214289057E+02 -0.91342422907E+02  0.16288013945E+03  0.89795998938E+02 0.  0.
       23    2    1    2    0    0  0.33610385775E+01  0.18025489357E+03 -0.79145211541E+02  0.21540628580E+03  0.87365784012E+02 0.  0.
      -11    1    4    4    0    0  0.28527313560E+02  0.91883431972E+02 -0.33076196933E+01  0.96266884431E+02  0.00000000000E+00 0. -1.
       11    1    4    4    0    0 -0.25166274982E+02  0.88371461597E+02 -0.75837591848E+02  0.11913940137E+03  0.00000000000E+00 0.  1.
      -13    1    3    3    0    0 -0.12095100295E+02 -0.13746230880E+02  0.14111911906E+02  0.23117014777E+02  0.00000000000E+00 0. -1.
       13    1    3    3    0    0  0.38028904177E+02 -0.83468058177E+02 -0.10545433481E+03  0.13976312468E+03  0.00000000000E+00 0.  1.
        4    1    1    2  501    0  0.13514099207E+03 -0.18138260271E+03  0.17982681152E+03  0.28896438958E+03  0.00000000000E+00 0. -1.
       -4    1    1    2    0  503 -0.16443583453E+03  0.98341998199E+02 -0.28965508721E+03  0.34729002553E+03  0.00000000000E+00 0.  1.
<mgrwt>
<rscale>  2 0.30017666E+03</rscale>
<asrwt>0</asrwt>
<pdfrwt beam="1">  1       21 0.56478841E-01 0.32987059E+03</pdfrwt>
<pdfrwt beam="2">  1       21 0.99604365E-01 0.32987059E+03</pdfrwt>
<totfact> 0.22244188E+03</totfact>
</mgrwt>
</event>
<event>
10   0  0.3368750E-06  0.1135470E+03  0.7546771E-02  0.1254899E+00
       21   -1    0    0  503  502  0.00000000000E+00  0.00000000000E+00  0.49182744022E+03  0.49182744022E+03  0.00000000000E+00 0.  1.
        3   -1    0    0  502    0  0.00000000000E+00  0.00000000000E+00 -0.71224309342E+02  0.71224309342E+02  0.00000000000E+00 0. -1.
       23    2    1    2    0    0  0.87592337221E+02 -0.82020338867E+02  0.19829823699E+03  0.24842056871E+03  0.89391468485E+02 0.  0.
       23    2    1    2    0    0 -0.22537758751E+02  0.46745845407E+02  0.32348614287E+02  0.11006058322E+03  0.91508330223E+02 0.  0.
      -11    1    3    3    0    0  0.24143619745E+02 -0.73294750729E+02  0.14827569413E+03  0.16715476759E+03  0.00000000000E+00 0.  1.
       11    1    3    3    0    0  0.63448717476E+02 -0.87255881376E+01  0.50022542865E+02  0.81265801124E+02  0.00000000000E+00 0. -1.
      -13    1    4    4    0    0  0.31783671461E+02  0.11747539952E+02 -0.67249322947E+01  0.34546073306E+02  0.00000000000E+00 0.  1.
       13    1    4    4    0    0 -0.54321430213E+02  0.34998305456E+02  0.39073546582E+02  0.75514509915E+02  0.00000000000E+00 0. -1.
       21    1    1    2  503  501 -0.17870323176E+02  0.17321602092E+01  0.49237880773E+02  0.52409137871E+02  0.00000000000E+00 0. -1.
        3    1    1    2  501    0 -0.47184255293E+02  0.33542333250E+02  0.14071839883E+03  0.15216145976E+03  0.00000000000E+00 0. -1.
<mgrwt>
<rscale>  2 0.11311988E+03</rscale>
<asrwt>0</asrwt>
<pdfrwt beam="1">  1       21 0.75665760E-01 0.11354703E+03</pdfrwt>
<pdfrwt beam="2">  1        3 0.10957586E-01 0.11354703E+03</pdfrwt>
<totfact> 0.48036763E+03</totfact>
</mgrwt>
</event>
<event>
10   0  0.3368750E-06  0.2412693E+03  0.7546771E-02  0.1126715E+00
       21   -1    0    0  501  502  0.00000000000E+00  0.00000000000E+00  0.10102178952E+03  0.10102178952E+03  0.00000000000E+00 0.  1.
       -3   -1    0    0    0  501  0.00000000000E+00  0.00000000000E+00 -0.74604867701E+03  0.74604867701E+03  0.00000000000E+00 0.  1.
       23    2    1    2    0    0  0.94326113906E+02 -0.14844682380E+03 -0.41853923792E+03  0.46587420108E+03  0.10454569477E+03 0.  0.
       23    2    1    2    0    0 -0.54277046029E+02  0.47865011110E+02 -0.22285666083E+03  0.25106615011E+03  0.90177954289E+02 0.  0.
      -11    1    4    4    0    0 -0.36691618300E+02  0.45065025278E+02 -0.22567531528E+03  0.23303750617E+03  0.00000000000E+00 0.  1.
       11    1    4    4    0    0 -0.17585427729E+02  0.27999858325E+01  0.28186544545E+01  0.18028643931E+02  0.00000000000E+00 0. -1.
      -13    1    3    3    0    0  0.65931477443E+02 -0.11440687616E+03 -0.17993434519E+03  0.22318660715E+03  0.00000000000E+00 0.  1.
       13    1    3    3    0    0  0.28394636463E+02 -0.34039947635E+02 -0.23860489273E+03  0.24268759393E+03  0.00000000000E+00 0. -1.
       21    1    1    2  503  502 -0.85129223160E+01  0.17583245737E+02  0.29483233918E+02  0.35368085321E+02  0.00000000000E+00 0.  1.
       -3    1    1    2    0  503 -0.31536145562E+02  0.82998566951E+02 -0.33114222661E+02  0.94762030029E+02  0.00000000000E+00 0.  1.
<mgrwt>
<rscale>  2 0.22989271E+03</rscale>
<asrwt>0</asrwt>
<pdfrwt beam="1">  1       21 0.15541814E-01 0.24126935E+03</pdfrwt>
<pdfrwt beam="2">  1       -3 0.11477672E+00 0.24126935E+03</pdfrwt>
<totfact> 0.11906184E+03</totfact>
</mgrwt>
</event>
<event>
10   0  0.3368750E-06  0.1058469E+03  0.7546771E-02  0.1268592E+00
       -1   -1    0    0    0  501  0.00000000000E+00  0.00000000000E+00  0.21636809176E+03  0.21636809176E+03  0.00000000000E+00 0.  1.
        1   -1    0    0  502    0  0.00000000000E+00  0.00000000000E+00 -0.10210722335E+03  0.10210722335E+03  0.00000000000E+00 0. -1.
       23    2    1    2    0    0 -0.41159842891E+02 -0.38957939030E+02  0.15113949677E+03  0.18561011876E+03  0.91630317151E+02 0.  0.
       23    2    1    2    0    0  0.29060100724E+02  0.22522749506E+02 -0.26512716770E+02  0.10250801484E+03  0.91941314196E+02 0.  0.
      -11    1    4    4    0    0  0.22890915214E+02 -0.69508175163E+01 -0.55670068481E+02  0.60592610013E+02  0.00000000000E+00 0. -1.
       11    1    4    4    0    0  0.61691855103E+01  0.29473567022E+02  0.29157351711E+02  0.41915404825E+02  0.00000000000E+00 0.  1.
      -13    1    3    3    0    0  0.85675779463E+01  0.24532611309E+02  0.49065142483E+02  0.55521532908E+02  0.00000000000E+00 0. -1.
       13    1    3    3    0    0 -0.49727420837E+02 -0.63490550339E+02  0.10207435428E+03  0.13008858585E+03  0.00000000000E+00 0.  1.
       21    1    1    2  502  503  0.19402238458E+01  0.10774945656E+02 -0.14362725833E+02  0.18059673746E+02  0.00000000000E+00 0. -1.
       21    1    1    2  503  501  0.10159518321E+02  0.56602438678E+01  0.39968142427E+01  0.12297507766E+02  0.00000000000E+00 0. -1.
<mgrwt>
<rscale>  2 0.10577936E+03</rscale>
<asrwt>0</asrwt>
<pdfrwt beam="1">  1        1 0.15708804E-01 0.10584693E+03</pdfrwt>
<pdfrwt beam="2">  1       -1 0.33287399E-01 0.10584693E+03</pdfrwt>
<totfact> 0.28532240E+03</totfact>
</mgrwt>
</event>
<event>
10   0  0.3368750E-06  0.1075746E+03  0.7546771E-02  0.1265986E+00
       -1   -1    0    0    0  501  0.00000000000E+00  0.00000000000E+00  0.29206384175E+03  0.29206384175E+03  0.00000000000E+00 0.  1.
       21   -1    0    0  503  502  0.00000000000E+00  0.00000000000E+00 -0.12544486789E+03  0.12544486789E+03  0.00000000000E+00 0. -1.
       23    2    1    2    0    0  0.24408976151E+02 -0.33216241345E+02  0.19658230991E+02  0.10092248226E+03  0.89998803178E+02 0.  0.
       23    2    1    2    0    0 -0.47803429129E+02  0.63862809519E+02  0.37426228466E+02  0.12443421442E+03  0.87860826676E+02 0.  0.
      -11    1    4    4    0    0 -0.29935937306E+02  0.43332899031E+02  0.66354150501E+02  0.84715841313E+02  0.00000000000E+00 0.  1.
       11    1    4    4    0    0 -0.17867491824E+02  0.20529910488E+02 -0.28927922035E+02  0.39718373104E+02  0.00000000000E+00 0. -1.
      -13    1    3    3    0    0 -0.11909200183E+02 -0.54811795426E+02  0.16888761102E+02  0.58578086504E+02  0.00000000000E+00 0. -1.
       13    1    3    3    0    0  0.36318176335E+02  0.21595554081E+02  0.27694698890E+01  0.42344395754E+02  0.00000000000E+00 0.  1.
       21    1    1    2  503  501 -0.45794513215E+01 -0.41124093546E+02  0.14207599031E+03  0.14797888183E+03  0.00000000000E+00 0. -1.
       -1    1    1    2    0  502  0.27973904299E+02  0.10477525373E+02 -0.32541475912E+02  0.44173131135E+02  0.00000000000E+00 0.  1.
<mgrwt>
<rscale>  2 0.10712624E+03</rscale>
<asrwt>0</asrwt>
<pdfrwt beam="1">  1       21 0.19299210E-01 0.10757458E+03</pdfrwt>
<pdfrwt beam="2">  1       -1 0.44932899E-01 0.10757458E+03</pdfrwt>
<totfact> 0.11444516E+04</totfact>
</mgrwt>
</event>
<event>
10   0  0.3368750E-06  0.1083509E+03  0.7546771E-02  0.1263757E+00
       -1   -1    0    0    0  501  0.00000000000E+00  0.00000000000E+00  0.85513687153E+02  0.85513687153E+02  0.00000000000E+00 0.  1.
       21   -1    0    0  503  502  0.00000000000E+00  0.00000000000E+00 -0.59023698520E+03  0.59023698520E+03  0.00000000000E+00 0.  1.
       23    2    1    2    0    0  0.21449179880E+02 -0.97352870761E+01 -0.51535925231E+01  0.94408919619E+02  0.91277825652E+02 0.  0.
       23    2    1    2    0    0 -0.39460514416E+02 -0.53566441057E+02 -0.42087935201E+03  0.43571839006E+03  0.91019726889E+02 0.  0.
      -11    1    3    3    0    0  0.44572302942E+02 -0.37376503914E+02 -0.15318451358E+01  0.58189687952E+02  0.00000000000E+00 0.  1.
       11    1    3    3    0    0 -0.23123123062E+02  0.27641216838E+02 -0.36217473873E+01  0.36219231667E+02  0.00000000000E+00 0. -1.
      -13    1    4    4    0    0 -0.12338360468E+02 -0.74516041899E+02 -0.23942945104E+03  0.25106042632E+03  0.00000000000E+00 0.  1.
       13    1    4    4    0    0 -0.27122153948E+02  0.20949600842E+02 -0.18144990097E+03  0.18465796374E+03  0.00000000000E+00 0. -1.
       21    1    1    2  503  501  0.37691527680E+02  0.45880952757E+02  0.33535670259E+01  0.59472342282E+02  0.00000000000E+00 0.  1.
       -1    1    1    2    0  502 -0.19680193144E+02  0.17420775376E+02 -0.82043920534E+02  0.86151020385E+02  0.00000000000E+00 0.  1.
<mgrwt>
<rscale>  2 0.10829648E+03</rscale>
<asrwt>0</asrwt>
<pdfrwt beam="1">  1       21 0.90805690E-01 0.10835085E+03</pdfrwt>
<pdfrwt beam="2">  1       -1 0.13155952E-01 0.10835085E+03</pdfrwt>
<totfact> 0.37544340E+03</totfact>
</mgrwt>
</event>
<event>
10   0  0.3368750E-06  0.1128944E+03  0.7546771E-02  0.1255351E+00
        3   -1    0    0  503    0  0.00000000000E+00  0.00000000000E+00  0.32257334261E+02  0.32257334261E+02  0.00000000000E+00 0. -1.
       -3   -1    0    0    0  501  0.00000000000E+00  0.00000000000E+00 -0.67776227224E+03  0.67776227224E+03  0.00000000000E+00 0.  1.
       23    2    1    2    0    0  0.15035934453E+02 -0.50185406188E+02 -0.21084038622E+03  0.23536757774E+03  0.90551498445E+02 0.  0.
       23    2    1    2    0    0 -0.69184774031E+02  0.60849516153E+02 -0.26397738588E+03  0.29385005515E+03  0.90413483973E+02 0.  0.
      -11    1    4    4    0    0 -0.35122106344E+02 -0.18530417601E+02 -0.11473101977E+03  0.12140900143E+03  0.00000000000E+00 0.  1.
       11    1    4    4    0    0 -0.34062667687E+02  0.79379933755E+02 -0.14924636611E+03  0.17244105373E+03  0.00000000000E+00 0. -1.
      -13    1    3    3    0    0  0.46111591738E+02 -0.19315030842E+01 -0.11088318169E+03  0.12010449441E+03  0.00000000000E+00 0. -1.
       13    1    3    3    0    0 -0.31075657285E+02 -0.48253903103E+02 -0.99957204532E+02  0.11526308333E+03  0.00000000000E+00 0.  1.
       21    1    1    2  502  501  0.15454531563E+02  0.49840606464E+01 -0.68938369880E+02  0.70825011459E+02  0.00000000000E+00 0.  1.
       21    1    1    2  503  502  0.38694308015E+02 -0.15648170612E+02 -0.10174879600E+03  0.10997696215E+03  0.00000000000E+00 0.  1.
<mgrwt>
<rscale>  2 0.11286671E+03</rscale>
<asrwt>0</asrwt>
<pdfrwt beam="1">  1        3 0.49626668E-02 0.11289439E+03</pdfrwt>
<pdfrwt beam="2">  1       -3 0.10427112E+00 0.11289439E+03</pdfrwt>
<totfact> 0.42883759E+02</totfact>
</mgrwt>
</event>
<event>
10   0  0.3368750E-06  0.9369803E+02  0.7546771E-02  0.1294138E+00
        3   -1    0    0  502    0  0.00000000000E+00  0.00000000000E+00  0.10986212287E+03  0.10986212287E+03  0.00000000000E+00 0. -1.
       21   -1    0    0  503  502  0.00000000000E+00  0.00000000000E+00 -0.15808566198E+03  0.15808566198E+03  0.00000000000E+00 0.  1.
       23    2    1    2    0    0 -0.24291081052E+02 -0.55964606459E+01 -0.73412495556E+02  0.11963995667E+03  0.91120512168E+02 0.  0.
       23    2    1    2    0    0  0.19978105500E+02  0.46007948055E+01 -0.33583587595E+00  0.93394381574E+02  0.91115891652E+02 0.  0.
      -11    1    4    4    0    0  0.88658294569E+01  0.43143415784E+02  0.20055813290E+02  0.48396207539E+02  0.00000000000E+00 0.  1.
       11    1    4    4    0    0  0.11112276043E+02 -0.38542620978E+02 -0.20391649166E+02  0.44998174034E+02  0.00000000000E+00 0. -1.
      -13    1    3    3    0    0  0.67451267840E+01 -0.33723543637E+02  0.82520111617E+00  0.34401382060E+02  0.00000000000E+00 0. -1.
       13    1    3    3    0    0 -0.31036207836E+02  0.28127082991E+02 -0.74237696672E+02  0.85238574610E+02  0.00000000000E+00 0.  1.
       21    1    1    2  503  501  0.13025413535E+01 -0.22924197589E+02  0.19348494741E+02  0.30026316754E+02  0.00000000000E+00 0. -1.
        3    1    1    2  501    0  0.30104341982E+01  0.23919863429E+02  0.61762975785E+01  0.24887129853E+02  0.00000000000E+00 0. -1.
<mgrwt>
<rscale>  2 0.93696902E+02</rscale>
<asrwt>0</asrwt>
<pdfrwt beam="1">  1       21 0.24320871E-01 0.93698025E+02</pdfrwt>
<pdfrwt beam="2">  1        3 0.16901865E-01 0.93698025E+02</pdfrwt>
<totfact> 0.22526845E+04</totfact>
</mgrwt>
</event>
<event>
10   0  0.3368750E-06  0.1325142E+03  0.7546771E-02  0.1226710E+00
       -2   -1    0    0    0  501  0.00000000000E+00  0.00000000000E+00  0.12604129413E+02  0.12604129413E+02  0.00000000000E+00 0.  1.
        2   -1    0    0  503    0  0.00000000000E+00  0.00000000000E+00 -0.18202680835E+04  0.18202680835E+04  0.00000000000E+00 0. -1.
       23    2    1    2    0    0  0.85841825442E+02  0.29675646980E+02 -0.56433348218E+03  0.58038638468E+03  0.10063107567E+03 0.  0.
       23    2    1    2    0    0 -0.74092639863E+02 -0.27837612854E+02 -0.87574081843E+03  0.88390704221E+03  0.90027919144E+02 0.  0.
      -11    1    3    3    0    0  0.42386468313E+02  0.27219649751E+02 -0.83008758070E+02  0.97097764882E+02  0.00000000000E+00 0.  1.
       11    1    3    3    0    0  0.43455357128E+02  0.24559972292E+01 -0.48132472411E+03  0.48328861980E+03  0.00000000000E+00 0. -1.
      -13    1    4    4    0    0  0.20444934527E+00  0.24003831952E+02 -0.97532933889E+02  0.10044351119E+03  0.00000000000E+00 0. -1.
       13    1    4    4    0    0 -0.74297089208E+02 -0.51841444806E+02 -0.77820788454E+03  0.78346353101E+03  0.00000000000E+00 0.  1.
       21    1    1    2  502  501 -0.11002367351E+02  0.92042891658E+01 -0.14328620409E+03  0.14400245591E+03  0.00000000000E+00 0. -1.
       21    1    1    2  503  502 -0.74681822751E+00 -0.11042323292E+02 -0.22430344938E+03  0.22457633011E+03  0.00000000000E+00 0.  1.
<mgrwt>
<rscale>  2 0.13050368E+03</rscale>
<asrwt>0</asrwt>
<pdfrwt beam="1">  1        2 0.28004124E+00 0.13251422E+03</pdfrwt>
<pdfrwt beam="2">  1       -2 0.19390968E-02 0.13251422E+03</pdfrwt>
<totfact> 0.73541109E+03</totfact>
</mgrwt>
</event>
<event>
10   0  0.3368750E-06  0.1466746E+03  0.7546771E-02  0.1225654E+00
       21   -1    0    0  501  502  0.00000000000E+00  0.00000000000E+00  0.24765151306E+02  0.24765151306E+02  0.00000000000E+00 0. -1.
        1   -1    0    0  503    0  0.00000000000E+00  0.00000000000E+00 -0.15112068835E+04  0.15112068835E+04  0.00000000000E+00 0. -1.
       23    2    1    2    0    0 -0.22322711074E+02 -0.65142790770E+00 -0.37500691697E+03  0.38657257642E+03  0.91156136772E+02 0.  0.
       23    2    1    2    0    0 -0.12932950786E+02  0.15801684580E+02 -0.92978019277E+03  0.93445660467E+03  0.91109739870E+02 0.  0.
      -11    1    3    3    0    0  0.88068911520E+01  0.18609880376E+02 -0.31899866270E+03  0.31966237780E+03  0.00000000000E+00 0.  1.
       11    1    3    3    0    0 -0.31129602226E+02 -0.19261308284E+02 -0.56008254278E+02  0.66910198616E+02  0.00000000000E+00 0. -1.
      -13    1    4    4    0    0  0.32502152018E+02 -0.85811460833E+01 -0.19557750817E+03  0.19844542740E+03  0.00000000000E+00 0.  1.
       13    1    4    4    0    0 -0.45435102804E+02  0.24382830664E+02 -0.73420268460E+03  0.73601117728E+03  0.00000000000E+00 0. -1.
       21    1    1    2  503  502  0.38401316849E+00  0.11343803865E+02  0.11929682537E+02  0.16466532047E+02  0.00000000000E+00 0. -1.
        1    1    1    2  501    0  0.34871648692E+02 -0.26494060537E+02 -0.19358430503E+03  0.19847632171E+03  0.00000000000E+00 0. -1.
<mgrwt>
<rscale>  2 0.13122205E+03</rscale>
<asrwt>0</asrwt>
<pdfrwt beam="1">  1       21 0.38100233E-02 0.14667456E+03</pdfrwt>
<pdfrwt beam="2">  1        1 0.23249337E+00 0.14667456E+03</pdfrwt>
<totfact> 0.34280055E+04</totfact>
</mgrwt>
</event>
<event>
10   0  0.3368750E-06  0.4497518E+03  0.7546771E-02  0.1027796E+00
       21   -1    0    0  503  502  0.00000000000E+00  0.00000000000E+00  0.93466987414E+02  0.93466987414E+02  0.00000000000E+00 0. -1.
        1   -1    0    0  502    0  0.00000000000E+00  0.00000000000E+00 -0.13936193097E+04  0.13936193097E+04  0.00000000000E+00 0. -1.
       23    2    1    2    0    0 -0.31873200095E+02 -0.18371759057E+03 -0.49675326458E+03  0.53848814178E+03  0.91856513111E+02 0.  0.
       23    2    1    2    0    0  0.28572197835E+02  0.90348663301E+02 -0.60925419225E+03  0.62345637006E+03  0.92346754899E+02 0.  0.
      -11    1    3    3    0    0 -0.43282588404E+02 -0.18692809776E+03 -0.43250049456E+03  0.47315132250E+03  0.00000000000E+00 0. -1.
       11    1    3    3    0    0  0.11409388309E+02  0.32105071981E+01 -0.64252770022E+02  0.65336819280E+02  0.00000000000E+00 0.  1.
      -13    1    4    4    0    0 -0.31830820402E+02  0.41808426202E+02 -0.19162402825E+03  0.19869804688E+03  0.00000000000E+00 0. -1.
       13    1    4    4    0    0  0.60403018237E+02  0.48540237099E+02 -0.41763016400E+03  0.42475832318E+03  0.00000000000E+00 0.  1.
       21    1    1    2  503  501  0.26937221385E+02  0.35979540978E+01  0.53862547119E+02  0.60330200992E+02  0.00000000000E+00 0. -1.
        1    1    1    2  501    0 -0.23636219124E+02  0.89770973168E+02 -0.24800741256E+03  0.26481158427E+03  0.00000000000E+00 0. -1.
<mgrwt>
<rscale>  2 0.44975181E+03</rscale>
<asrwt>0</asrwt>
<pdfrwt beam="1">  1       21 0.14379537E-01 0.44975181E+03</pdfrwt>
<pdfrwt beam="2">  1        1 0.21440297E+00 0.44975181E+03</pdfrwt>
<totfact> 0.37542243E+03</totfact>
</mgrwt>
</event>
<event>
10   0  0.3368750E-06  0.1763402E+03  0.7546771E-02  0.1192844E+00
       21   -1    0    0  503  502  0.00000000000E+00  0.00000000000E+00  0.41684190832E+03  0.41684190832E+03  0.00000000000E+00 0.  1.
       21   -1    0    0  501  503  0.00000000000E+00  0.00000000000E+00 -0.55408386851E+03  0.55408386851E+03  0.00000000000E+00 0. -1.
       23    2    1    2    0    0  0.20602101320E+02 -0.83922993659E+02  0.85326344286E+02  0.15243658375E+03  0.92134746929E+02 0.  0.
       23    2    1    2    0    0  0.56585930961E+02 -0.39171731566E+01  0.18833188086E+03  0.21686044627E+03  0.91335885499E+02 0.  0.
      -11    1    4    4    0    0  0.53163093302E+02  0.26017287519E+02  0.57196381287E+02  0.82308199905E+02  0.00000000000E+00 0.  1.
       11    1    4    4    0    0  0.34228376593E+01 -0.29934460676E+02  0.13113549957E+03  0.13455224636E+03  0.00000000000E+00 0. -1.
      -13    1    3    3    0    0  0.33210389522E+02 -0.37177812417E+02 -0.48485856292E+01  0.50086210587E+02  0.00000000000E+00 0.  1.
       13    1    3    3    0    0 -0.12608288202E+02 -0.46745181242E+02  0.90174929915E+02  0.10235037316E+03  0.00000000000E+00 0. -1.
        4    1    1    2  501    0 -0.31747951231E+02  0.44507219895E+02 -0.49425582415E+03  0.49727019289E+03  0.00000000000E+00 0. -1.
       -4    1    1    2    0  502 -0.45440081051E+02  0.43332946921E+02  0.83355638819E+02  0.10435855393E+03  0.00000000000E+00 0.  1.
<mgrwt>
<rscale>  2 0.15638099E+03</rscale>
<asrwt>0</asrwt>
<pdfrwt beam="1">  1       21 0.64129524E-01 0.17634021E+03</pdfrwt>
<pdfrwt beam="2">  1       21 0.85243672E-01 0.17634021E+03</pdfrwt>
<totfact> 0.27108693E+03</totfact>
</mgrwt>
</event>
<event>
10   0  0.3368750E-06  0.1029068E+03  0.7546771E-02  0.1276113E+00
       -1   -1    0    0    0  501  0.00000000000E+00  0.00000000000E+00  0.69234621705E+02  0.69234621705E+02  0.00000000000E+00 0.  1.
        1   -1    0    0  502    0  0.00000000000E+00  0.00000000000E+00 -0.47797358090E+03  0.47797358090E+03  0.00000000000E+00 0. -1.
       23    2    1    2    0    0  0.29391338466E+01 -0.10140657306E+02 -0.99873075403E+02  0.13698962728E+03  0.93166814658E+02 0.  0.
       23    2    1    2    0    0  0.20097174609E+02  0.73248408437E+02 -0.20594643696E+03  0.23696360034E+03  0.89266943607E+02 0.  0.
      -11    1    3    3    0    0 -0.13779293990E+02 -0.42286788009E+02 -0.18986626497E+02  0.48358384679E+02  0.00000000000E+00 0.  1.
       11    1    3    3    0    0  0.16718427837E+02  0.32146130703E+02 -0.80886448906E+02  0.88631242602E+02  0.00000000000E+00 0. -1.
      -13    1    4    4    0    0  0.49748262042E+02  0.50454293889E+02 -0.17364725607E+03  0.18754704714E+03  0.00000000000E+00 0. -1.
       13    1    4    4    0    0 -0.29651087433E+02  0.22794114548E+02 -0.32299180890E+02  0.49416553200E+02  0.00000000000E+00 0.  1.
       21    1    1    2  502  503  0.47370116172E+02 -0.21420226297E+02 -0.64551756398E+02  0.82883552378E+02  0.00000000000E+00 0.  1.
       21    1    1    2  503  501 -0.70406424628E+02 -0.41687524834E+02 -0.38367690434E+02  0.90371422612E+02  0.00000000000E+00 0. -1.
<mgrwt>
<rscale>  2 0.10201603E+03</rscale>
<asrwt>0</asrwt>
<pdfrwt beam="1">  1        1 0.73534397E-01 0.10290677E+03</pdfrwt>
<pdfrwt beam="2">  1       -1 0.10651480E-01 0.10290677E+03</pdfrwt>
<totfact> 0.25596172E+03</totfact>
</mgrwt>
</event>
<event>
10   0  0.3368750E-06  0.1226551E+03  0.7546771E-02  0.1248407E+00
       21   -1    0    0  501  502  0.00000000000E+00  0.00000000000E+00  0.63995116666E+02  0.63995116666E+02  0.00000000000E+00 0. -1.
        1   -1    0    0  503    0  0.00000000000E+00  0.00000000000E+00 -0.78645017046E+03  0.78645017046E+03  0.00000000000E+00 0. -1.
       23    2    1    2    0    0 -0.46329317270E+02 -0.12473385296E+02 -0.56718972068E+03  0.57621216729E+03  0.89522575372E+02 0.  0.
       23    2    1    2    0    0  0.44514660753E+02  0.19297029354E+02 -0.19369398998E+03  0.21727533224E+03  0.85657911951E+02 0.  0.
      -11    1    4    4    0    0 -0.98438783880E+01  0.19889057647E+02 -0.76840816732E+01  0.23484498439E+02  0.00000000000E+00 0.  1.
       11    1    4    4    0    0  0.54358539141E+02 -0.59202829253E+00 -0.18600990831E+03  0.19379083380E+03  0.00000000000E+00 0. -1.
      -13    1    3    3    0    0 -0.68396786836E+02  0.57273022416E+01 -0.46707628115E+03  0.47209233721E+03  0.00000000000E+00 0. -1.
       13    1    3    3    0    0  0.22067469566E+02 -0.18200687537E+02 -0.10011343953E+03  0.10411983008E+03  0.00000000000E+00 0.  1.
       21    1    1    2  503  502  0.11149345037E+02 -0.15477393156E+02  0.39820085672E+02  0.44153106534E+02  0.00000000000E+00 0. -1.
        1    1    1    2  501    0 -0.93346885196E+01  0.86537490972E+01 -0.13914288017E+01  0.12804681070E+02  0.00000000000E+00 0. -1.
<mgrwt>
<rscale>  2 0.11683790E+03</rscale>
<asrwt>0</asrwt>
<pdfrwt beam="1">  1       21 0.98454026E-02 0.12265513E+03</pdfrwt>
<pdfrwt beam="2">  1        1 0.12099233E+00 0.12265513E+03</pdfrwt>
<totfact> 0.22278266E+04</totfact>
</mgrwt>
</event>
<event>
10   0  0.3368750E-06  0.1444461E+03  0.7546771E-02  0.1228084E+00
       21   -1    0    0  501  502  0.00000000000E+00  0.00000000000E+00  0.19664170639E+02  0.19664170639E+02  0.00000000000E+00 0.  1.
       -3   -1    0    0    0  501  0.00000000000E+00  0.00000000000E+00 -0.19004431469E+04  0.19004431469E+04  0.00000000000E+00 0.  1.
       23    2    1    2    0    0 -0.82455847693E+01  0.10123481455E+02 -0.54552836280E+03  0.55311731341E+03  0.90371971475E+02 0.  0.
       23    2    1    2    0    0 -0.30108220028E+02 -0.57447206922E+02 -0.12416471970E+04  0.12469580774E+04  0.94921010693E+02 0.  0.
      -11    1    4    4    0    0 -0.26018484754E+02 -0.36127742019E+02 -0.11912832951E+04  0.11921149544E+04  0.00000000000E+00 0.  1.
       11    1    4    4    0    0 -0.40897352734E+01 -0.21319464903E+02 -0.50363901952E+02  0.54843122980E+02  0.00000000000E+00 0. -1.
      -13    1    3    3    0    0  0.36374201305E+02 -0.13499479347E+02 -0.18118353686E+03  0.18529110203E+03  0.00000000000E+00 0.  1.
       13    1    3    3    0    0 -0.44619786074E+02  0.23622960802E+02 -0.36434482594E+03  0.36782621137E+03  0.00000000000E+00 0. -1.
       21    1    1    2  503  502  0.32989947036E+02  0.27305709909E+02 -0.27835235386E+02  0.51075813533E+02  0.00000000000E+00 0.  1.
       -3    1    1    2    0  503  0.53638577606E+01  0.20018015558E+02 -0.65768181077E+02  0.68956113284E+02  0.00000000000E+00 0.  1.
<mgrwt>
<rscale>  2 0.12957742E+03</rscale>
<asrwt>0</asrwt>
<pdfrwt beam="1">  1       21 0.30252570E-02 0.14444612E+03</pdfrwt>
<pdfrwt beam="2">  1       -3 0.29237587E+00 0.14444612E+03</pdfrwt>
<totfact> 0.15164847E+03</totfact>
</mgrwt>
</event>
<event>
10   0  0.3368750E-06  0.1807976E+03  0.7546771E-02  0.1198388E+00
        3   -1    0    0  503    0  0.00000000000E+00  0.00000000000E+00  0.28844574847E+04  0.28844574847E+04  0.00000000000E+00 0. -1.
       -3   -1    0    0    0  501  0.00000000000E+00  0.00000000000E+00 -0.15171175390E+02  0.15171175390E+02  0.00000000000E+00 0.  1.
       23    2    1    2    0    0  0.56995746847E+02 -0.10893228618E+03  0.10953327268E+04  0.11093836082E+04  0.12595018631E+03 0.  0.
       23    2    1    2    0    0 -0.26144724122E+02 -0.25223846582E+02  0.80789184473E+03  0.81284897689E+03  0.81941670882E+02 0.  0.
      -11    1    3    3    0    0 -0.13198441557E+02  0.36554289801E+01  0.46676286144E+03  0.46696373504E+03  0.00000000000E+00 0. -1.
       11    1    3    3    0    0  0.70194188404E+02 -0.11258771516E+03  0.62856986539E+03  0.64241987311E+03  0.00000000000E+00 0.  1.
      -13    1    4    4    0    0 -0.51693162300E+01 -0.45096112490E+02  0.68910912511E+03  0.69060246705E+03  0.00000000000E+00 0.  1.
       13    1    4    4    0    0 -0.20975407892E+02  0.19872265908E+02  0.11878271962E+03  0.12224650984E+03  0.00000000000E+00 0. -1.
       21    1    1    2  502  501 -0.30670078207E+02  0.25968671388E+02  0.27220211945E+03  0.27515272018E+03  0.00000000000E+00 0.  1.
       21    1    1    2  503  502 -0.18094451833E+00  0.10818746137E+03  0.69385961835E+03  0.70224335491E+03  0.00000000000E+00 0. -1.
<mgrwt>
<rscale>  2 0.15170942E+03</rscale>
<asrwt>0</asrwt>
<pdfrwt beam="1">  1        3 0.44376269E+00 0.18079762E+03</pdfrwt>
<pdfrwt beam="2">  1       -3 0.23340270E-02 0.18079762E+03</pdfrwt>
<totfact> 0.15190832E+01</totfact>
</mgrwt>
</event>
<event>
10   0  0.3368750E-06  0.1207920E+03  0.7546771E-02  0.1251186E+00
       -2   -1    0    0    0  501  0.00000000000E+00  0.00000000000E+00  0.23935347594E+02  0.23935347594E+02  0.00000000000E+00 0.  1.
        4   -1    0    0  501    0  0.00000000000E+00  0.00000000000E+00 -0.83078094741E+03  0.83078094741E+03  0.00000000000E+00 0. -1.
       23    2    1    2    0    0  0.37114867213E+02 -0.26741314259E+02 -0.53856462631E+03  0.54781198017E+03  0.89182384183E+02 0.  0.
       23    2    1    2    0    0 -0.26884918196E+02  0.24826982491E+02 -0.23931957455E+03  0.25857967524E+03  0.90831777464E+02 0.  0.
      -11    1    3    3    0    0  0.20950777639E+02  0.27361514149E+01 -0.47860190429E+03  0.47906805821E+03  0.00000000000E+00 0. -1.
       11    1    3    3    0    0  0.16164089573E+02 -0.29477465674E+02 -0.59962722025E+02  0.68743921964E+02  0.00000000000E+00 0.  1.
      -13    1    4    4    0    0 -0.49278470605E+02  0.45707189204E+02 -0.16964412147E+03  0.18247367689E+03  0.00000000000E+00 0.  1.
       13    1    4    4    0    0  0.22393552409E+02 -0.20880206713E+02 -0.69675453082E+02  0.76105998345E+02  0.00000000000E+00 0. -1.
        4    1    1    2  502    0  0.44084622693E+01  0.17040177427E+02 -0.14202845698E+02  0.22616874502E+02  0.00000000000E+00 0. -1.
       -2    1    1    2    0  502 -0.14638411286E+02 -0.15125845659E+02 -0.14758553259E+02  0.25707765095E+02  0.00000000000E+00 0.  1.
<mgrwt>
<rscale>  2 0.11522647E+03</rscale>
<asrwt>0</asrwt>
<pdfrwt beam="1">  1        4 0.12781245E+00 0.12079197E+03</pdfrwt>
<pdfrwt beam="2">  1       -2 0.36823612E-02 0.12079197E+03</pdfrwt>
<totfact> 0.45700816E+02</totfact>
</mgrwt>
</event>
<event>
10   0  0.3368750E-06  0.5260859E+03  0.7546771E-02  0.1051891E+00
        1   -1    0    0  502    0  0.00000000000E+00  0.00000000000E+00  0.97657641579E+03  0.97657641579E+03  0.00000000000E+00 0.  1.
        1   -1    0    0  501    0  0.00000000000E+00  0.00000000000E+00 -0.17872337644E+04  0.17872337644E+04  0.00000000000E+00 0. -1.
       23    2    1    2    0    0 -0.15997181764E+02 -0.10289679997E+03 -0.85121603279E+03  0.86270049356E+03  0.94019922636E+02 0.  0.
       23    2    1    2    0    0  0.24152189957E+02  0.97827347991E+02 -0.92432158767E+03  0.93445357445E+03  0.93164194141E+02 0.  0.
      -11    1    3    3    0    0  0.23664997498E+02 -0.94905550904E+02 -0.53040656385E+03  0.53934981104E+03  0.00000000000E+00 0.  1.
       11    1    3    3    0    0 -0.39662179261E+02 -0.79912490626E+01 -0.32080946894E+03  0.32335068252E+03  0.00000000000E+00 0. -1.
      -13    1    4    4    0    0 -0.14199273863E+02  0.94115878442E+02 -0.74383977847E+03  0.74990468327E+03  0.00000000000E+00 0. -1.
       13    1    4    4    0    0  0.38351463820E+02  0.37114695488E+01 -0.18048180920E+03  0.18454889117E+03  0.00000000000E+00 0.  1.
        1    1    1    2  501    0 -0.10104633012E+02  0.19327442116E+02  0.89709743825E+03  0.89736250610E+03  0.00000000000E+00 0.  1.
        1    1    1    2  502    0  0.19496248194E+01 -0.14257990141E+02  0.67782833579E+02  0.69293606111E+02  0.00000000000E+00 0. -1.
<mgrwt>
<rscale>  2 0.37742240E+03</rscale>
<asrwt>0</asrwt>
<pdfrwt beam="1">  1        1 0.15024253E+00 0.52608585E+03</pdfrwt>
<pdfrwt beam="2">  1        1 0.27495904E+00 0.52608585E+03</pdfrwt>
<totfact> 0.84712959E+00</totfact>
</mgrwt>
</event>
<event>
10   0  0.3368750E-06  0.1241283E+03  0.7546771E-02  0.1250510E+00
        3   -1    0    0  502    0  0.00000000000E+00  0.00000000000E+00  0.12967219782E+03  0.12967219782E+03  0.00000000000E+00 0. -1.
       21   -1    0    0  503  502  0.00000000000E+00  0.00000000000E+00 -0.23070629800E+03  0.23070629800E+03  0.00000000000E+00 0. -1.
       23    2    1    2    0    0 -0.18007294435E+02 -0.30855340300E+02  0.40606548364E+02  0.10186726926E+03  0.86323427286E+02 0.  0.
       23    2    1    2    0    0  0.46368500993E+02 -0.55845711128E+02 -0.55074324931E+02  0.12957615764E+03  0.92130440285E+02 0.  0.
      -11    1    4    4    0    0  0.72946493050E+02 -0.26673918161E+02 -0.33344289040E+02  0.84525323838E+02  0.00000000000E+00 0.  1.
       11    1    4    4    0    0 -0.26577992057E+02 -0.29171792967E+02 -0.21730035891E+02  0.45050833805E+02  0.00000000000E+00 0. -1.
      -13    1    3    3    0    0 -0.43155268106E+01 -0.43731265227E+02  0.60320317913E+02  0.74629672940E+02  0.00000000000E+00 0. -1.
       13    1    3    3    0    0 -0.13691767624E+02  0.12875924927E+02 -0.19713769549E+02  0.27237596319E+02  0.00000000000E+00 0.  1.
       21    1    1    2  503  501 -0.16198578442E+02  0.14632166311E+02 -0.26490879262E+02  0.34325805432E+02  0.00000000000E+00 0.  1.
        3    1    1    2  501    0 -0.12162628116E+02  0.72068885117E+02 -0.60075444347E+02  0.94609263490E+02  0.00000000000E+00 0. -1.
<mgrwt>
<rscale>  2 0.11561592E+03</rscale>
<asrwt>0</asrwt>
<pdfrwt beam="1">  1       21 0.35493277E-01 0.12412825E+03</pdfrwt>
<pdfrwt beam="2">  1        3 0.19949569E-01 0.12412825E+03</pdfrwt>
<totfact> 0.83520121E+03</totfact>
</mgrwt>
</event>
<event>
10   0  0.3368750E-06  0.1734400E+03  0.7546771E-02  0.1174494E+00
        3   -1    0    0  503    0  0.00000000000E+00  0.00000000000E+00  0.27229665140E+03  0.27229665140E+03  0.00000000000E+00 0. -1.
       -3   -1    0    0    0  501  0.00000000000E+00  0.00000000000E+00 -0.15834530837E+03  0.15834530837E+03  0.00000000000E+00 0.  1.
       23    2    1    2    0    0 -0.74418495035E+02  0.12402169247E+03  0.34508897319E+02  0.17406669598E+03  0.90492309343E+02 0.  0.
       23    2    1    2    0    0  0.53139652233E+02 -0.14240440020E+03  0.45029042442E+01  0.17623292248E+03  0.89078229557E+02 0.  0.
      -11    1    4    4    0    0  0.41174318402E+02 -0.74564327703E+02  0.44989985677E+02  0.96328927498E+02  0.00000000000E+00 0. -1.
       11    1    4    4    0    0  0.11965333831E+02 -0.67840072501E+02 -0.40487081432E+02  0.79903994979E+02  0.00000000000E+00 0.  1.
      -13    1    3    3    0    0 -0.64397779684E+02  0.29049543096E+02  0.34378269953E+02  0.78567266895E+02  0.00000000000E+00 0.  1.
       13    1    3    3    0    0 -0.10020715351E+02  0.94972149374E+02  0.13062736527E+00  0.95499429089E+02  0.00000000000E+00 0. -1.
       21    1    1    2  502  501  0.14329550385E+02  0.10695916265E+02  0.38351680453E+02  0.42315364025E+02  0.00000000000E+00 0. -1.
       21    1    1    2  503  502  0.69492924165E+01  0.76867914683E+01  0.36587861009E+02  0.38026977285E+02  0.00000000000E+00 0. -1.
<mgrwt>
<rscale>  2 0.17325628E+03</rscale>
<asrwt>0</asrwt>
<pdfrwt beam="1">  1        3 0.41891793E-01 0.17343996E+03</pdfrwt>
<pdfrwt beam="2">  1       -3 0.24360817E-01 0.17343996E+03</pdfrwt>
<totfact> 0.21497742E+02</totfact>
</mgrwt>
</event>
<event>
10   0  0.3368750E-06  0.1081075E+03  0.7546771E-02  0.1264838E+00
       21   -1    0    0  503  502  0.00000000000E+00  0.00000000000E+00  0.88972195214E+02  0.88972195214E+02  0.00000000000E+00 0. -1.
       -3   -1    0    0    0  501  0.00000000000E+00  0.00000000000E+00 -0.36850303801E+03  0.36850303801E+03  0.00000000000E+00 0.  1.
       23    2    1    2    0    0  0.35212497969E+02  0.45319825129E+02 -0.23351748196E+01  0.10702191284E+03  0.90301883836E+02 0.  0.
       23    2    1    2    0    0 -0.56019273289E+02  0.98219580173E+00 -0.16979508158E+03  0.20111926856E+03  0.92084020159E+02 0.  0.
      -11    1    4    4    0    0 -0.55596045553E+02  0.40175779156E+02 -0.10837312974E+03  0.12825657395E+03  0.00000000000E+00 0. -1.
       11    1    4    4    0    0 -0.42322773628E+00 -0.39193583354E+02 -0.61421951838E+02  0.72862694607E+02  0.00000000000E+00 0.  1.
      -13    1    3    3    0    0 -0.30791369572E+02  0.16146813965E+02  0.98351079610E+00  0.34782112283E+02  0.00000000000E+00 0.  1.
       13    1    3    3    0    0  0.66003867542E+02  0.29173011164E+02 -0.33186856157E+01  0.72239800561E+02  0.00000000000E+00 0. -1.
       21    1    1    2  503  501  0.20489183812E+02 -0.58371588684E+02 -0.11802250299E+03  0.13325299332E+03  0.00000000000E+00 0.  1.
       -3    1    1    2    0  502  0.31759150718E+00  0.12069567753E+02  0.10621916594E+02  0.16081058492E+02  0.00000000000E+00 0.  1.
<mgrwt>
<rscale>  2 0.10772702E+03</rscale>
<asrwt>0</asrwt>
<pdfrwt beam="1">  1       21 0.13688030E-01 0.10810750E+03</pdfrwt>
<pdfrwt beam="2">  1       -3 0.56692775E-01 0.10810750E+03</pdfrwt>
<totfact> 0.68881761E+03</totfact>
</mgrwt>
</event>
<event>
10   0  0.3368750E-06  0.2493458E+03  0.7546771E-02  0.1154612E+00
        1   -1    0    0  502    0  0.00000000000E+00  0.00000000000E+00  0.18452962186E+03  0.18452962186E+03  0.00000000000E+00 0. -1.
        3   -1    0    0  501    0  0.00000000000E+00  0.00000000000E+00 -0.43021287560E+03  0.43021287560E+03  0.00000000000E+00 0. -1.
       23    2    1    2    0    0 -0.10340764297E+02 -0.31300967854E+01  0.88209652643E+02  0.12746459350E+03  0.91375876824E+02 0.  0.
       23    2    1    2    0    0 -0.23243124057E+01  0.67997882930E+01  0.48340793796E+02  0.10406730983E+03  0.91877816043E+02 0.  0.
      -11    1    3    3    0    0  0.28110372514E+02 -0.26709037440E+02  0.15205765895E+02  0.41650702759E+02  0.00000000000E+00 0.  1.
       11    1    3    3    0    0 -0.38451136811E+02  0.23578940654E+02  0.73003886747E+02  0.85813890744E+02  0.00000000000E+00 0. -1.
      -13    1    4    4    0    0 -0.45207934690E+02  0.27101201174E+01  0.99598845682E+01  0.46371342557E+02  0.00000000000E+00 0. -1.
       13    1    4    4    0    0  0.42883622284E+02  0.40896681756E+01  0.38380909228E+02  0.57695967269E+02  0.00000000000E+00 0.  1.
        1    1    1    2  501    0  0.30471035239E+01  0.99768247130E+01 -0.12418075235E+03  0.12461814124E+03  0.00000000000E+00 0. -1.
        3    1    1    2  502    0  0.96179731790E+01 -0.13646516221E+02 -0.25805294782E+03  0.25859245289E+03  0.00000000000E+00 0. -1.
<mgrwt>
<rscale>  2 0.19433149E+03</rscale>
<asrwt>0</asrwt>
<pdfrwt beam="1">  1        1 0.28389173E-01 0.24934583E+03</pdfrwt>
<pdfrwt beam="2">  1        3 0.66186596E-01 0.24934583E+03</pdfrwt>
<totfact> 0.19676110E+02</totfact>
</mgrwt>
</event>
<event>
10   0  0.3368750E-06  0.1339362E+03  0.7546771E-02  0.1235603E+00
        2   -1    0    0  502    0  0.00000000000E+00  0.00000000000E+00  0.19500421828E+04  0.19500421828E+04  0.00000000000E+00 0. -1.
       21   -1    0    0  503  502  0.00000000000E+00  0.00000000000E+00 -0.50302235470E+02  0.50302235470E+02  0.00000000000E+00 0. -1.
       23    2    1    2    0    0  0.35997056805E+02 -0.14771737450E+02  0.10300011926E+04  0.10347984999E+04  0.91605056653E+02 0.  0.
       23    2    1    2    0    0 -0.21404129324E+02 -0.13591935079E+02  0.79525563166E+03  0.80099737076E+03  0.92316795990E+02 0.  0.
      -11    1    4    4    0    0  0.25290788190E+02 -0.23045594194E+02  0.55557315088E+03  0.55662577137E+03  0.00000000000E+00 0.  1.
       11    1    4    4    0    0 -0.46694917514E+02  0.94536591151E+01  0.23968248079E+03  0.24437159939E+03  0.00000000000E+00 0. -1.
      -13    1    3    3    0    0  0.60496329024E+02 -0.31335531538E+02  0.61998529873E+03  0.62371747771E+03  0.00000000000E+00 0. -1.
       13    1    3    3    0    0 -0.24499272219E+02  0.16563794087E+02  0.41001589385E+03  0.41108102222E+03  0.00000000000E+00 0.  1.
       21    1    1    2  503  501  0.11402666200E+02  0.95563060349E+01 -0.41564523390E+02  0.44146952172E+02  0.00000000000E+00 0. -1.
        2    1    1    2  501    0 -0.25995593681E+02  0.18807366494E+02  0.11604764650E+03  0.12040159543E+03  0.00000000000E+00 0. -1.
<mgrwt>
<rscale>  2 0.12465913E+03</rscale>
<asrwt>0</asrwt>
<pdfrwt beam="1">  1       21 0.77388055E-02 0.13393621E+03</pdfrwt>
<pdfrwt beam="2">  1        2 0.30000649E+00 0.13393621E+03</pdfrwt>
<totfact> 0.13331049E+04</totfact>
</mgrwt>
</event>
<event>
10   0  0.3368750E-06  0.1858940E+03  0.7546771E-02  0.1192946E+00
        2   -1    0    0  502    0  0.00000000000E+00  0.00000000000E+00  0.84172512450E+02  0.84172512450E+02  0.00000000000E+00 0. -1.
        2   -1    0    0  501    0  0.00000000000E+00  0.00000000000E+00 -0.10629967471E+04  0.10629967471E+04  0.00000000000E+00 0.  1.
       23    2    1    2    0    0 -0.20244378627E+02  0.53099000794E+01 -0.21185304233E+02  0.95503658089E+02  0.90741951093E+02 0.  0.
       23    2    1    2    0    0  0.78641640732E+02  0.25900779877E+02 -0.11757401841E+03  0.16985420777E+03  0.90396039943E+02 0.  0.
      -11    1    3    3    0    0 -0.55895893222E+02 -0.10160005449E+01 -0.19666486564E+02  0.59263427423E+02  0.00000000000E+00 0.  1.
       11    1    3    3    0    0  0.35651514595E+02  0.63259006243E+01 -0.15188176693E+01  0.36240230666E+02  0.00000000000E+00 0. -1.
      -13    1    4    4    0    0 -0.46656337614E+01  0.36039413745E-01 -0.70650131265E+02  0.70804028734E+02  0.00000000000E+00 0.  1.
       13    1    4    4    0    0  0.83307274494E+02  0.25864740463E+02 -0.46923887149E+02  0.99050179041E+02  0.00000000000E+00 0. -1.
        2    1    1    2  501    0 -0.60436044140E+02 -0.29449639807E+00 -0.23792866589E+02  0.64951540859E+02  0.00000000000E+00 0. -1.
        2    1    1    2  502    0  0.20387820347E+01 -0.30916183558E+02 -0.81627204542E+03  0.81685985283E+03  0.00000000000E+00 0.  1.
<mgrwt>
<rscale>  2 0.15629389E+03</rscale>
<asrwt>0</asrwt>
<pdfrwt beam="1">  1        2 0.12949617E-01 0.18589400E+03</pdfrwt>
<pdfrwt beam="2">  1        2 0.16353796E+00 0.18589400E+03</pdfrwt>
<totfact> 0.17315300E+03</totfact>
</mgrwt>
</event>
<event>
10   0  0.3368750E-06  0.2509211E+03  0.7546771E-02  0.1112797E+00
       -1   -1    0    0    0  501  0.00000000000E+00  0.00000000000E+00  0.38470034938E+03  0.38470034938E+03  0.00000000000E+00 0.  1.
        1   -1    0    0  503    0  0.00000000000E+00  0.00000000000E+00 -0.57853568835E+03  0.57853568835E+03  0.00000000000E+00 0. -1.
       23    2    1    2    0    0 -0.89781830695E+02 -0.20796585440E+03  0.26406063309E+03  0.36058953107E+03  0.94795665789E+02 0.  0.
       23    2    1    2    0    0  0.64217585671E+02  0.26037488519E+03 -0.23525866741E+03  0.36943631285E+03  0.96008174205E+02 0.  0.
      -11    1    4    4    0    0  0.67916133534E+02  0.89457491332E+02 -0.74595767158E+02  0.13483238642E+03  0.00000000000E+00 0.  1.
       11    1    4    4    0    0 -0.36985478631E+01  0.17091739386E+03 -0.16066290026E+03  0.23460392644E+03  0.00000000000E+00 0. -1.
      -13    1    3    3    0    0 -0.96825190810E+02 -0.18689738121E+03  0.19101339713E+03  0.28423910104E+03  0.00000000000E+00 0. -1.
       13    1    3    3    0    0  0.70433601153E+01 -0.21068473191E+02  0.73047235962E+02  0.76350430031E+02  0.00000000000E+00 0.  1.
       21    1    1    2  502  501 -0.79564176714E+01 -0.22322765904E+02 -0.92954209148E+02  0.95927553175E+02  0.00000000000E+00 0. -1.
       21    1    1    2  503  502  0.33520662695E+02 -0.30086264883E+02 -0.12968309549E+03  0.13728264063E+03  0.00000000000E+00 0. -1.
<mgrwt>
<rscale>  2 0.25080569E+03</rscale>
<asrwt>0</asrwt>
<pdfrwt beam="1">  1        1 0.89005491E-01 0.25092113E+03</pdfrwt>
<pdfrwt beam="2">  1       -1 0.59184669E-01 0.25092113E+03</pdfrwt>
<totfact> 0.11223277E+02</totfact>
</mgrwt>
</event>
<event>
10   0  0.3368750E-06  0.1685277E+03  0.7546771E-02  0.1183190E+00
        1   -1    0    0  502    0  0.00000000000E+00  0.00000000000E+00  0.29287923047E+03  0.29287923047E+03  0.00000000000E+00 0. -1.
       21   -1    0    0  503  502  0.00000000000E+00  0.00000000000E+00 -0.22964736659E+04  0.22964736659E+04  0.00000000000E+00 0. -1.
       23    2    1    2    0    0 -0.71803338391E+02 -0.97414051480E+02  0.23114985578E+03  0.27691639148E+03  0.92775078628E+02 0.  0.
       23    2    1    2    0    0  0.20434009338E+03  0.75020524233E+02 -0.45205483224E+03  0.51458019455E+03  0.11426395955E+03 0.  0.
      -11    1    3    3    0    0 -0.56117433739E+02 -0.35758519306E+02  0.18958182043E+03  0.20092064282E+03  0.00000000000E+00 0. -1.
       11    1    3    3    0    0 -0.15685904652E+02 -0.61655532174E+02  0.41568035352E+02  0.75995748667E+02  0.00000000000E+00 0.  1.
      -13    1    4    4    0    0 -0.81605086928E+01  0.25780819420E+02 -0.38864632683E+02  0.47346639011E+02  0.00000000000E+00 0.  1.
       13    1    4    4    0    0  0.21250060207E+03  0.49239704813E+02 -0.41319019955E+03  0.46723355553E+03  0.00000000000E+00 0. -1.
       21    1    1    2  503  501 -0.19624005692E+02 -0.52945536032E+01 -0.13400466499E+04  0.13402007902E+04  0.00000000000E+00 0. -1.
        1    1    1    2  501    0 -0.11291274930E+03  0.27688080851E+02 -0.44264280907E+03  0.45765552023E+03  0.00000000000E+00 0. -1.
<mgrwt>
<rscale>  2 0.16497660E+03</rscale>
<asrwt>0</asrwt>
<pdfrwt beam="1">  1       21 0.35330364E+00 0.16852767E+03</pdfrwt>
<pdfrwt beam="2">  1        1 0.45058343E-01 0.16852767E+03</pdfrwt>
<totfact> 0.17163923E+01</totfact>
</mgrwt>
</event>
<event>
10   0  0.3368750E-06  0.1702946E+03  0.7546771E-02  0.1177599E+00
       -2   -1    0    0    0  501  0.00000000000E+00  0.00000000000E+00  0.10559616393E+03  0.10559616393E+03  0.00000000000E+00 0.  1.
        2   -1    0    0  503    0  0.00000000000E+00  0.00000000000E+00 -0.49094712811E+03  0.49094712811E+03  0.00000000000E+00 0. -1.
       23    2    1    2    0    0  0.17815874251E+03 -0.25776857268E+02 -0.20937737722E+03  0.29082137742E+03  0.91286382169E+02 0.  0.
       23    2    1    2    0    0 -0.10802382428E+03 -0.18250584475E+02 -0.63068307553E+02  0.15568356818E+03  0.90870960909E+02 0.  0.
      -11    1    3    3    0    0  0.21369466625E+02  0.12112779105E+02  0.23214543298E+01  0.24673116376E+02  0.00000000000E+00 0.  1.
       11    1    3    3    0    0  0.15678927588E+03 -0.37889636373E+02 -0.21169883155E+03  0.26614826105E+03  0.00000000000E+00 0. -1.
      -13    1    4    4    0    0 -0.96447271792E+02  0.40249189281E+01 -0.80025646151E+02  0.12538891598E+03  0.00000000000E+00 0.  1.
       13    1    4    4    0    0 -0.11576552488E+02 -0.22275503403E+02  0.16957338599E+02  0.30294652196E+02  0.00000000000E+00 0. -1.
       21    1    1    2  502  501 -0.54964172642E+02  0.90291053816E+01 -0.42867177097E+02  0.70286413271E+02  0.00000000000E+00 0. -1.
       21    1    1    2  503  502 -0.15170745587E+02  0.34998336361E+02 -0.70038102307E+02  0.79751933170E+02  0.00000000000E+00 0. -1.
<mgrwt>
<rscale>  2 0.17023900E+03</rscale>
<asrwt>0</asrwt>
<pdfrwt beam="1">  1        2 0.75530327E-01 0.17029460E+03</pdfrwt>
<pdfrwt beam="2">  1       -2 0.16245564E-01 0.17029460E+03</pdfrwt>
<totfact> 0.18820007E+03</totfact>
</mgrwt>
</event>
<event>
10   0  0.3368750E-06  0.1203659E+03  0.7546771E-02  0.1242801E+00
       21   -1    0    0  501  502  0.00000000000E+00  0.00000000000E+00  0.30352997171E+03  0.30352997171E+03  0.00000000000E+00 0. -1.
       21   -1    0    0  502  503  0.00000000000E+00  0.00000000000E+00 -0.17411075723E+03  0.17411075723E+03  0.00000000000E+00 0.  1.
       23    2    1    2    0    0 -0.60604766458E+02 -0.23442295938E+02  0.12336403852E+03  0.16701742544E+03  0.91943762404E+02 0.  0.
       23    2    1    2    0    0  0.10016320189E+03  0.59537309606E+01 -0.19231283570E+02  0.13809499740E+03  0.92910021605E+02 0.  0.
      -11    1    4    4    0    0  0.56702701271E+02 -0.36063639179E+02 -0.34794356209E+02  0.75673176399E+02  0.00000000000E+00 0.  1.
       11    1    4    4    0    0  0.43460500615E+02  0.42017370139E+02  0.15563072640E+02  0.62421821001E+02  0.00000000000E+00 0. -1.
      -13    1    3    3    0    0  0.84703823429E+01 -0.13703870160E+02  0.86751784587E+02  0.88235001917E+02  0.00000000000E+00 0.  1.
       13    1    3    3    0    0 -0.69075148800E+02 -0.97384257785E+01  0.36612253937E+02  0.78782423527E+02  0.00000000000E+00 0. -1.
        2    1    1    2  501    0 -0.52668089188E+01 -0.12264393686E+02  0.91376924928E+02  0.92346613570E+02  0.00000000000E+00 0.  1.
       -2    1    1    2    0  503 -0.34291626509E+02  0.29752958664E+02 -0.66090465410E+02  0.80181692524E+02  0.00000000000E+00 0. -1.
<mgrwt>
<rscale>  2 0.12017943E+03</rscale>
<asrwt>0</asrwt>
<pdfrwt beam="1">  1       21 0.46696919E-01 0.12036593E+03</pdfrwt>
<pdfrwt beam="2">  1       21 0.26786270E-01 0.12036593E+03</pdfrwt>
<totfact> 0.60315058E+04</totfact>
</mgrwt>
</event>
<event>
10   0  0.3368750E-06  0.4024284E+03  0.7546771E-02  0.1042942E+00
       21   -1    0    0  503  502  0.00000000000E+00  0.00000000000E+00  0.36908216817E+03  0.36908216817E+03  0.00000000000E+00 0. -1.
        2   -1    0    0  502    0  0.00000000000E+00  0.00000000000E+00 -0.90607108408E+03  0.90607108408E+03  0.00000000000E+00 0. -1.
       23    2    1    2    0    0  0.12508825445E+01 -0.73633963508E+02 -0.22207875266E+03  0.25094419620E+03  0.90722058706E+02 0.  0.
       23    2    1    2    0    0  0.60863494916E+02  0.41857832053E+02 -0.52760901880E+03  0.54050737697E+03  0.91216800665E+02 0.  0.
      -11    1    4    4    0    0  0.46731220780E+01 -0.38426937528E+01 -0.32979662129E+03  0.32985211198E+03  0.00000000000E+00 0.  1.
       11    1    4    4    0    0  0.56190372838E+02  0.45700525806E+02 -0.19781239751E+03  0.21065526499E+03  0.00000000000E+00 0. -1.
      -13    1    3    3    0    0  0.25787298495E+02  0.11242202673E+02 -0.62515179368E+02  0.68553041771E+02  0.00000000000E+00 0. -1.
       13    1    3    3    0    0 -0.24536415951E+02 -0.84876166181E+02 -0.15956357329E+03  0.18239115443E+03  0.00000000000E+00 0.  1.
       21    1    1    2  503  501  0.26978612109E+02  0.98147833384E+02  0.31600561137E+03  0.33199456189E+03  0.00000000000E+00 0. -1.
        2    1    1    2  501    0 -0.89092989569E+02 -0.66371701929E+02 -0.10330675581E+03  0.15170711718E+03  0.00000000000E+00 0. -1.
<mgrwt>
<rscale>  2 0.40242844E+03</rscale>
<asrwt>0</asrwt>
<pdfrwt beam="1">  1       21 0.56781872E-01 0.40242844E+03</pdfrwt>
<pdfrwt beam="2">  1        2 0.13939555E+00 0.40242844E+03</pdfrwt>
<totfact> 0.10245531E+03</totfact>
</mgrwt>
</event>
<event>
10   0  0.3368750E-06  0.2653521E+03  0.7546771E-02  0.1103970E+00
        1   -1    0    0  503    0  0.00000000000E+00  0.00000000000E+00  0.67622744802E+03  0.67622744802E+03  0.00000000000E+00 0. -1.
       21   -1    0    0  501  502  0.00000000000E+00  0.00000000000E+00 -0.54941541256E+02  0.54941541256E+02  0.00000000000E+00 0.  1.
       23    2    1    2    0    0 -0.18686141866E+02 -0.58539287303E+02  0.23290940333E+03  0.25744181444E+03  0.90848652213E+02 0.  0.
       23    2    1    2    0    0  0.19879189064E+02  0.67530120604E+02  0.39598286634E+03  0.41234867004E+03  0.90958759328E+02 0.  0.
      -11    1    3    3    0    0 -0.41939465711E+02  0.21939334936E+01  0.12008210269E+03  0.12721416397E+03  0.00000000000E+00 0. -1.
       11    1    3    3    0    0  0.23253323845E+02 -0.60733220796E+02  0.11282730064E+03  0.13022765047E+03  0.00000000000E+00 0.  1.
      -13    1    4    4    0    0 -0.12609719507E+02 -0.18743562836E+02  0.89003528883E+02  0.91825673575E+02  0.00000000000E+00 0.  1.
       13    1    4    4    0    0  0.32488908571E+02  0.86273683441E+02  0.30697933746E+03  0.32052299646E+03  0.00000000000E+00 0. -1.
       21    1    1    2  503  502  0.28922391787E+01 -0.29779547940E+02 -0.20782292649E+02  0.36429249384E+02  0.00000000000E+00 0.  1.
        1    1    1    2  501    0 -0.40852863768E+01  0.20788714638E+02  0.13175929745E+02  0.24949255414E+02  0.00000000000E+00 0. -1.
<mgrwt>
<rscale>  2 0.26535209E+03</rscale>
<asrwt>0</asrwt>
<pdfrwt beam="1">  1       21 0.84525448E-02 0.26535209E+03</pdfrwt>
<pdfrwt beam="2">  1        1 0.10403499E+00 0.26535209E+03</pdfrwt>
<totfact> 0.35710227E+04</totfact>
</mgrwt>
</event>
<event>
10   0  0.3368750E-06  0.1340932E+03  0.7546771E-02  0.1221537E+00
        1   -1    0    0  503    0  0.00000000000E+00  0.00000000000E+00  0.15049839498E+04  0.15049839498E+04  0.00000000000E+00 0. -1.
       -1   -1    0    0    0  501  0.00000000000E+00  0.00000000000E+00 -0.40344538568E+02  0.40344538568E+02  0.00000000000E+00 0.  1.
       23    2    1    2    0    0  0.57746795166E+02  0.72161687662E+02  0.67587485252E+03  0.68822694667E+03  0.91145555796E+02 0.  0.
       23    2    1    2    0    0 -0.61857708266E+02 -0.83738924957E+02  0.79677907322E+03  0.80868965544E+03  0.91013645546E+02 0.  0.
      -11    1    4    4    0    0 -0.52322410302E+02 -0.22682331481E+02  0.17988426371E+03  0.18870736899E+03  0.00000000000E+00 0.  1.
       11    1    4    4    0    0 -0.95352979640E+01 -0.61056593477E+02  0.61689480951E+03  0.61998228645E+03  0.00000000000E+00 0. -1.
      -13    1    3    3    0    0  0.44098421387E+02 -0.36121221237E+01  0.37727030237E+03  0.37985602437E+03  0.00000000000E+00 0.  1.
       13    1    3    3    0    0  0.13648373779E+02  0.75773809785E+02  0.29860455014E+03  0.30837092230E+03  0.00000000000E+00 0. -1.
       21    1    1    2  502  501 -0.86932175106E+01  0.82846453950E+01 -0.24497149822E+02  0.27282187035E+02  0.00000000000E+00 0.  1.
       21    1    1    2  503  502  0.12804130611E+02  0.32925919007E+01  0.16482635328E+02  0.21129699228E+02  0.00000000000E+00 0.  1.
<mgrwt>
<rscale>  2 0.13407076E+03</rscale>
<asrwt>0</asrwt>
<pdfrwt beam="1">  1        1 0.23153599E+00 0.13409318E+03</pdfrwt>
<pdfrwt beam="2">  1       -1 0.62068521E-02 0.13409318E+03</pdfrwt>
<totfact> 0.91304319E+02</totfact>
</mgrwt>
</event>
<event>
10   0  0.3368750E-06  0.1239896E+03  0.7546771E-02  0.1237448E+00
       21   -1    0    0  501  502  0.00000000000E+00  0.00000000000E+00  0.62089496742E+02  0.62089496742E+02  0.00000000000E+00 0. -1.
        1   -1    0    0  503    0  0.00000000000E+00  0.00000000000E+00 -0.52434709762E+03  0.52434709762E+03  0.00000000000E+00 0. -1.
       23    2    1    2    0    0 -0.80799431455E+02  0.25422626946E+02 -0.32820588524E+03  0.35062160300E+03  0.89674674790E+02 0.  0.
       23    2    1    2    0    0  0.63631497689E+02 -0.35790542353E+02 -0.88815271764E+02  0.14747257197E+03  0.92358413606E+02 0.  0.
      -11    1    4    4    0    0  0.27965932823E+02 -0.44807103860E+02 -0.16295596306E+01  0.52843404693E+02  0.00000000000E+00 0. -1.
       11    1    4    4    0    0  0.35665564866E+02  0.90165615067E+01 -0.87185712134E+02  0.94629167274E+02  0.00000000000E+00 0.  1.
      -13    1    3    3    0    0 -0.26415443451E+02  0.18514193156E+02 -0.20837151472E+02  0.38402316107E+02  0.00000000000E+00 0.  1.
       13    1    3    3    0    0 -0.54383988004E+02  0.69084337897E+01 -0.30736873377E+03  0.31221928689E+03  0.00000000000E+00 0. -1.
       21    1    1    2  503  502  0.48245121377E+01  0.22094096476E+02 -0.61051241537E+02  0.65105138889E+02  0.00000000000E+00 0. -1.
        1    1    1    2  501    0  0.12343421628E+02 -0.11726181069E+02  0.15814797668E+02  0.23237280504E+02  0.00000000000E+00 0. -1.
<mgrwt>
<rscale>  2 0.12349007E+03</rscale>
<asrwt>0</asrwt>
<pdfrwt beam="1">  1       21 0.95522303E-02 0.12398957E+03</pdfrwt>
<pdfrwt beam="2">  1        1 0.80668784E-01 0.12398957E+03</pdfrwt>
<totfact> 0.41242705E+04</totfact>
</mgrwt>
</event>
<event>
10   0  0.3368750E-06  0.9639725E+02  0.7546771E-02  0.1289468E+00
        1   -1    0    0  502    0  0.00000000000E+00  0.00000000000E+00  0.12483027036E+03  0.12483027036E+03  0.00000000000E+00 0. -1.
       -1   -1    0    0    0  501  0.00000000000E+00  0.00000000000E+00 -0.18659085848E+03  0.18659085848E+03  0.00000000000E+00 0.  1.
       23    2    1    2    0    0 -0.34282087141E+02 -0.37892736457E+02 -0.58538504704E+02  0.12005016738E+03  0.91510464865E+02 0.  0.
       23    2    1    2    0    0 -0.96189465623E+01  0.15849902853E+02  0.58258668509E+02  0.11220714224E+03  0.94088398652E+02 0.  0.
      -11    1    4    4    0    0  0.21080879005E+02  0.29793071851E+02 -0.84490154149E+01  0.37462200301E+02  0.00000000000E+00 0.  1.
       11    1    4    4    0    0 -0.30699825567E+02 -0.13943168998E+02  0.66707683924E+02  0.74744941943E+02  0.00000000000E+00 0. -1.
      -13    1    3    3    0    0 -0.40006122490E+02  0.13900833504E+02 -0.91852404486E+00  0.42362326367E+02  0.00000000000E+00 0.  1.
       13    1    3    3    0    0  0.57240353487E+01 -0.51793569961E+02 -0.57619980660E+02  0.77687841013E+02  0.00000000000E+00 0. -1.
       21    1    1    2  502  503  0.98182734912E+01  0.26145111458E+01 -0.17436733396E+02  0.20181026595E+02  0.00000000000E+00 0. -1.
       21    1    1    2  503  501  0.34082760212E+02  0.19428322459E+02 -0.44044018526E+02  0.58982792619E+02  0.00000000000E+00 0.  1.
<mgrwt>
<rscale>  2 0.95762374E+02</rscale>
<asrwt>0</asrwt>
<pdfrwt beam="1">  1        1 0.19204657E-01 0.96397247E+02</pdfrwt>
<pdfrwt beam="2">  1       -1 0.28706286E-01 0.96397247E+02</pdfrwt>
<totfact> 0.28168437E+03</totfact>
</mgrwt>
</event>
<event>
10   0  0.3368750E-06  0.9639962E+02  0.7546771E-02  0.1288596E+00
       21   -1    0    0  503  502  0.00000000000E+00  0.00000000000E+00  0.21538327289E+03  0.21538327289E+03  0.00000000000E+00 0. -1.
        1   -1    0    0  502    0  0.00000000000E+00  0.00000000000E+00 -0.90435658014E+03  0.90435658014E+03  0.00000000000E+00 0. -1.
       23    2    1    2    0    0 -0.13282391989E+01 -0.29618494521E+02 -0.74442696866E+03  0.75053649102E+03  0.90854241720E+02 0.  0.
       23    2    1    2    0    0 -0.50599128695E+01  0.46389736996E+02 -0.13747895348E+03  0.17072033784E+03  0.89818487425E+02 0.  0.
      -11    1    4    4    0    0  0.25317953661E+01 -0.26389161565E+02 -0.50663950435E+02  0.57180710992E+02  0.00000000000E+00 0.  1.
       11    1    4    4    0    0 -0.75917082356E+01  0.72778898561E+02 -0.86815003048E+02  0.11353962684E+03  0.00000000000E+00 0. -1.
      -13    1    3    3    0    0 -0.33435215716E+02 -0.41528372116E+02 -0.58762211578E+03  0.59003582120E+03  0.00000000000E+00 0.  1.
       13    1    3    3    0    0  0.32106976517E+02  0.11909877595E+02 -0.15680485288E+03  0.16050066982E+03  0.00000000000E+00 0. -1.
       21    1    1    2  503  501  0.22609948048E+02 -0.38240908512E+01  0.13524671148E+03  0.13717691638E+03  0.00000000000E+00 0. -1.
        1    1    1    2  501    0 -0.16221795980E+02 -0.12947151623E+02  0.57685903419E+02  0.61306107797E+02  0.00000000000E+00 0. -1.
<mgrwt>
<rscale>  2 0.96154802E+02</rscale>
<asrwt>0</asrwt>
<pdfrwt beam="1">  1       21 0.33135888E-01 0.96399619E+02</pdfrwt>
<pdfrwt beam="2">  1        1 0.13913178E+00 0.96399619E+02</pdfrwt>
<totfact> 0.19785706E+03</totfact>
</mgrwt>
</event>
<event>
10   0  0.3368750E-06  0.1066663E+03  0.7546771E-02  0.1269084E+00
       21   -1    0    0  501  502  0.00000000000E+00  0.00000000000E+00  0.46365565377E+02  0.46365565377E+02  0.00000000000E+00 0.  1.
        2   -1    0    0  503    0  0.00000000000E+00  0.00000000000E+00 -0.35352730222E+03  0.35352730222E+03  0.00000000000E+00 0. -1.
       23    2    1    2    0    0  0.97003022789E+01  0.53493224132E+02 -0.19739954096E+03  0.22280198358E+03  0.87855132032E+02 0.  0.
       23    2    1    2    0    0 -0.23754029151E+01 -0.47832607985E+02 -0.76280251856E+02  0.12948755453E+03  0.93030903628E+02 0.  0.
      -11    1    3    3    0    0 -0.32016960684E+02  0.51395769635E+02 -0.10131743238E+03  0.11803318606E+03  0.00000000000E+00 0.  1.
       11    1    3    3    0    0  0.41717262963E+02  0.20974544969E+01 -0.96082108582E+02  0.10476879752E+03  0.00000000000E+00 0. -1.
      -13    1    4    4    0    0 -0.30006856076E+02 -0.93903753450E+01  0.83356201074E+01  0.32528035957E+02  0.00000000000E+00 0.  1.
       13    1    4    4    0    0  0.27631453161E+02 -0.38442232640E+02 -0.84615871963E+02  0.96959518574E+02  0.00000000000E+00 0. -1.
       21    1    1    2  503  502  0.37061821549E+01  0.12227028315E+02 -0.11460954920E+02  0.17163609622E+02  0.00000000000E+00 0.  1.
        2    1    1    2  501    0 -0.11031081519E+02 -0.17887644463E+02 -0.22020989104E+02  0.30439719858E+02  0.00000000000E+00 0. -1.
<mgrwt>
<rscale>  2 0.10552749E+03</rscale>
<asrwt>0</asrwt>
<pdfrwt beam="1">  1       21 0.71331639E-02 0.10666629E+03</pdfrwt>
<pdfrwt beam="2">  1        2 0.54388816E-01 0.10666629E+03</pdfrwt>
<totfact> 0.16282131E+05</totfact>
</mgrwt>
</event>
<event>
10   0  0.3368750E-06  0.9359475E+02  0.7546771E-02  0.1296944E+00
       21   -1    0    0  501  502  0.00000000000E+00  0.00000000000E+00  0.60804020386E+03  0.60804020386E+03  0.00000000000E+00 0.  1.
        1   -1    0    0  503    0  0.00000000000E+00  0.00000000000E+00 -0.39719591453E+02  0.39719591453E+02  0.00000000000E+00 0. -1.
       23    2    1    2    0    0 -0.29788124587E+02  0.10594350159E+02  0.48028471495E+03  0.48906008566E+03  0.86641718278E+02 0.  0.
       23    2    1    2    0    0  0.16060388388E+02  0.24531421790E+01  0.60781271622E+02  0.11073703154E+03  0.91128333644E+02 0.  0.
      -11    1    3    3    0    0 -0.58123777349E+02 -0.59570811394E+01  0.27185774551E+03  0.27806562913E+03  0.00000000000E+00 0. -1.
       11    1    3    3    0    0  0.28335652763E+02  0.16551431298E+02  0.20842696944E+03  0.21099445653E+03  0.00000000000E+00 0.  1.
      -13    1    4    4    0    0  0.21809653142E+02  0.43989856106E+02  0.22699847015E+02  0.54092989055E+02  0.00000000000E+00 0.  1.
       13    1    4    4    0    0 -0.57492647539E+01 -0.41536713927E+02  0.38081424607E+02  0.56644042486E+02  0.00000000000E+00 0. -1.
       21    1    1    2  503  502  0.17264228647E+01 -0.13871687990E+02 -0.39446280700E+01  0.14524612016E+02  0.00000000000E+00 0.  1.
        1    1    1    2  501    0  0.12001313334E+02  0.82419565209E+00  0.31199253903E+02  0.33438066097E+02  0.00000000000E+00 0. -1.
<mgrwt>
<rscale>  2 0.92484522E+02</rscale>
<asrwt>0</asrwt>
<pdfrwt beam="1">  1       21 0.93544647E-01 0.93594750E+02</pdfrwt>
<pdfrwt beam="2">  1        1 0.61107064E-02 0.93594750E+02</pdfrwt>
<totfact> 0.12929269E+04</totfact>
</mgrwt>
</event>
<event>
10   0  0.3368750E-06  0.1376694E+03  0.7546771E-02  0.1222038E+00
        3   -1    0    0  502    0  0.00000000000E+00  0.00000000000E+00  0.89018153079E+02  0.89018153079E+02  0.00000000000E+00 0. -1.
       21   -1    0    0  503  502  0.00000000000E+00  0.00000000000E+00 -0.85831894071E+03  0.85831894071E+03  0.00000000000E+00 0.  1.
       23    2    1    2    0    0 -0.35673528649E+02 -0.66697661025E+02  0.14059863288E+02  0.12396509936E+03  0.97203330560E+02 0.  0.
       23    2    1    2    0    0  0.27979513867E+02  0.67168907505E+02 -0.16823922480E+03  0.20451512027E+03  0.90705470209E+02 0.  0.
      -11    1    3    3    0    0  0.25913251357E+02 -0.28380736792E+02 -0.20568702533E+02  0.43589383348E+02  0.00000000000E+00 0.  1.
       11    1    3    3    0    0 -0.61586780006E+02 -0.38316924233E+02  0.34628565821E+02  0.80375716015E+02  0.00000000000E+00 0. -1.
      -13    1    4    4    0    0 -0.24175492626E+02  0.21367594802E+02 -0.10764432989E+03  0.11237584397E+03  0.00000000000E+00 0. -1.
       13    1    4    4    0    0  0.52155006493E+02  0.45801312703E+02 -0.60594894919E+02  0.92139276304E+02  0.00000000000E+00 0.  1.
       21    1    1    2  503  501 -0.69264307633E+01  0.99212858907E+01 -0.57232963713E+03  0.57245752759E+03  0.00000000000E+00 0.  1.
        3    1    1    2  501    0  0.14620445545E+02 -0.10392532371E+02 -0.42791788988E+02  0.46399346566E+02  0.00000000000E+00 0. -1.
<mgrwt>
<rscale>  2 0.13371999E+03</rscale>
<asrwt>0</asrwt>
<pdfrwt beam="1">  1       21 0.13204907E+00 0.13766944E+03</pdfrwt>
<pdfrwt beam="2">  1        3 0.13695100E-01 0.13766944E+03</pdfrwt>
<totfact> 0.89777662E+02</totfact>
</mgrwt>
</event>
<event>
10   0  0.3368750E-06  0.1466167E+03  0.7546771E-02  0.1204808E+00
       21   -1    0    0  503  502  0.00000000000E+00  0.00000000000E+00  0.81044085987E+02  0.81044085987E+02  0.00000000000E+00 0.  1.
       -1   -1    0    0    0  501  0.00000000000E+00  0.00000000000E+00 -0.78189959899E+03  0.78189959899E+03  0.00000000000E+00 0.  1.
       23    2    1    2    0    0 -0.59851924561E+02  0.97630763117E+02 -0.50919644641E+03  0.52998409725E+03  0.92130904244E+02 0.  0.
       23    2    1    2    0    0  0.16704095913E+02 -0.89889425806E+02 -0.34351987464E+02  0.13386809992E+03  0.91550387443E+02 0.  0.
      -11    1    3    3    0    0 -0.48670958374E+02  0.83973965164E+02 -0.22254214647E+03  0.24278693534E+03  0.00000000000E+00 0. -1.
       11    1    3    3    0    0 -0.11180966187E+02  0.13656797953E+02 -0.28665429994E+03  0.28719716191E+03  0.00000000000E+00 0.  1.
      -13    1    4    4    0    0 -0.91149506787E+01  0.99557914545E+01 -0.27351975112E+02  0.30501322133E+02  0.00000000000E+00 0.  1.
       13    1    4    4    0    0  0.25819046591E+02 -0.99845217261E+02 -0.70000123526E+01  0.10336677779E+03  0.00000000000E+00 0. -1.
       21    1    1    2  503  501  0.57821603872E+01  0.11166386702E+02 -0.15670632892E+03  0.15721003496E+03  0.00000000000E+00 0. -1.
       -1    1    1    2    0  502  0.37365668261E+02 -0.18907724013E+02 -0.60075021241E+00  0.41881452850E+02  0.00000000000E+00 0.  1.
<mgrwt>
<rscale>  2 0.14652563E+03</rscale>
<asrwt>0</asrwt>
<pdfrwt beam="1">  1       21 0.12468321E-01 0.14661674E+03</pdfrwt>
<pdfrwt beam="2">  1       -1 0.12029225E+00 0.14661674E+03</pdfrwt>
<totfact> 0.34328391E+03</totfact>
</mgrwt>
</event>
<event>
10   0  0.3368750E-06  0.9304318E+02  0.7546771E-02  0.1296003E+00
        4   -1    0    0  502    0  0.00000000000E+00  0.00000000000E+00  0.40522462270E+03  0.40522462270E+03  0.00000000000E+00 0. -1.
       -4   -1    0    0    0  501  0.00000000000E+00  0.00000000000E+00 -0.72182916247E+02  0.72182916247E+02  0.00000000000E+00 0.  1.
       23    2    1    2    0    0 -0.13924560095E+02 -0.47060134617E+02  0.59795179341E+02  0.11881724136E+03  0.90186050626E+02 0.  0.
       23    2    1    2    0    0 -0.35386597190E+01  0.18929741347E+02  0.19225577948E+03  0.21296127155E+03  0.89550886190E+02 0.  0.
      -11    1    3    3    0    0  0.14108865355E+02  0.16463541676E+02  0.41800249414E+02  0.47088949204E+02  0.00000000000E+00 0. -1.
       11    1    3    3    0    0 -0.28033425450E+02 -0.63523676292E+02  0.17994929927E+02  0.71728292153E+02  0.00000000000E+00 0.  1.
      -13    1    4    4    0    0 -0.14551189376E+01  0.54515854196E+02  0.13389217440E+03  0.14457250809E+03  0.00000000000E+00 0. -1.
       13    1    4    4    0    0 -0.20835407814E+01 -0.35586112849E+02  0.58363605076E+02  0.68388763459E+02  0.00000000000E+00 0.  1.
       21    1    1    2  502  503  0.73019795065E+01 -0.86008421363E+01  0.10165313821E+03  0.10227733814E+03  0.00000000000E+00 0. -1.
       21    1    1    2  503  501  0.10161240307E+02  0.36731235406E+02 -0.20662390575E+02  0.43351687895E+02  0.00000000000E+00 0. -1.
<mgrwt>
<rscale>  2 0.92888919E+02</rscale>
<asrwt>0</asrwt>
<pdfrwt beam="1">  1        4 0.62342250E-01 0.93043184E+02</pdfrwt>
<pdfrwt beam="2">  1       -4 0.11105064E-01 0.93043184E+02</pdfrwt>
<totfact> 0.24042615E+02</totfact>
</mgrwt>
</event>
<event>
10   0  0.3368750E-06  0.9614946E+02  0.7546771E-02  0.1288694E+00
       -1   -1    0    0    0  501  0.00000000000E+00  0.00000000000E+00  0.10516215312E+04  0.10516215312E+04  0.00000000000E+00 0.  1.
       21   -1    0    0  501  502  0.00000000000E+00  0.00000000000E+00 -0.98308569606E+02  0.98308569606E+02  0.00000000000E+00 0.  1.
       23    2    1    2    0    0 -0.33137264537E+01  0.28404335940E+02  0.98709992574E+03  0.99175754626E+03  0.91645949665E+02 0.  0.
       23    2    1    2    0    0 -0.33959756757E+02 -0.44060774720E+02 -0.59202741092E+01  0.10723239100E+03  0.91482889581E+02 0.  0.
      -11    1    4    4    0    0 -0.64643673614E+02 -0.28057324140E+02 -0.13633539532E+02  0.71776677106E+02  0.00000000000E+00 0.  1.
       11    1    4    4    0    0  0.30683916857E+02 -0.16003450580E+02  0.77132654232E+01  0.35455713893E+02  0.00000000000E+00 0. -1.
      -13    1    3    3    0    0 -0.18505011264E+02  0.33831564225E+02  0.95550338306E+03  0.95628119568E+03  0.00000000000E+00 0.  1.
       13    1    3    3    0    0  0.15191284810E+02 -0.54272282852E+01  0.31596542678E+02  0.35476350577E+02  0.00000000000E+00 0. -1.
       21    1    1    2  503  502  0.15116031693E+02  0.10367019509E+02 -0.19261460515E+02  0.26588970811E+02  0.00000000000E+00 0.  1.
       -1    1    1    2    0  503  0.22157451518E+02  0.52894192705E+01 -0.86052294985E+01  0.24351192757E+02  0.00000000000E+00 0.  1.
<mgrwt>
<rscale>  2 0.96110585E+02</rscale>
<asrwt>0</asrwt>
<pdfrwt beam="1">  1       21 0.15124395E-01 0.96149461E+02</pdfrwt>
<pdfrwt beam="2">  1       -1 0.16178793E+00 0.96149461E+02</pdfrwt>
<totfact> 0.11811725E+03</totfact>
</mgrwt>
</event>
<event>
10   0  0.3368750E-06  0.1849716E+03  0.7546771E-02  0.1163587E+00
        1   -1    0    0  502    0  0.00000000000E+00  0.00000000000E+00  0.16051448827E+04  0.16051448827E+04  0.00000000000E+00 0. -1.
       21   -1    0    0  503  502  0.00000000000E+00  0.00000000000E+00 -0.59710593348E+02  0.59710593348E+02  0.00000000000E+00 0.  1.
       23    2    1    2    0    0 -0.10222949008E+03  0.12271490755E+03  0.45020369856E+03  0.48766422801E+03  0.98097970958E+02 0.  0.
       23    2    1    2    0    0  0.56475611246E+02 -0.14769421095E+03  0.11040883257E+04  0.11193024604E+04  0.93935575765E+02 0.  0.
      -11    1    3    3    0    0 -0.26106778703E+02  0.78252105547E+02  0.31972770641E+03  0.33019806505E+03  0.00000000000E+00 0. -1.
       11    1    3    3    0    0 -0.76122711378E+02  0.44462802008E+02  0.13047599215E+03  0.15746616296E+03  0.00000000000E+00 0.  1.
      -13    1    4    4    0    0  0.54833611232E+01 -0.11322134607E+02  0.11462435326E+02  0.17018971910E+02  0.00000000000E+00 0.  1.
       13    1    4    4    0    0  0.50992250123E+02 -0.13637207634E+03  0.10926258903E+04  0.11022834885E+04  0.00000000000E+00 0. -1.
       21    1    1    2  503  501  0.58186107635E+01  0.98667351899E+01  0.56762120749E+01  0.12783899172E+02  0.00000000000E+00 0. -1.
        1    1    1    2  501    0  0.39935268072E+02  0.15112568202E+02 -0.14533946907E+02  0.45104888497E+02  0.00000000000E+00 0. -1.
<mgrwt>
<rscale>  2 0.18442579E+03</rscale>
<asrwt>0</asrwt>
<pdfrwt beam="1">  1       21 0.91862451E-02 0.18497156E+03</pdfrwt>
<pdfrwt beam="2">  1        1 0.24694537E+00 0.18497156E+03</pdfrwt>
<totfact> 0.65600679E+03</totfact>
</mgrwt>
</event>
<event>
10   0  0.3368750E-06  0.1144465E+03  0.7546771E-02  0.1253183E+00
        1   -1    0    0  503    0  0.00000000000E+00  0.00000000000E+00  0.10773295260E+04  0.10773295260E+04  0.00000000000E+00 0. -1.
       21   -1    0    0  501  502  0.00000000000E+00  0.00000000000E+00 -0.51452676404E+02  0.51452676404E+02  0.00000000000E+00 0. -1.
       23    2    1    2    0    0 -0.58416690766E+02  0.33283030751E+01  0.70010695741E+03  0.70856177934E+03  0.92121962455E+02 0.  0.
       23    2    1    2    0    0  0.10133957518E+03 -0.55270015027E+02  0.28162409448E+03  0.31748635785E+03  0.90338102535E+02 0.  0.
      -11    1    4    4    0    0 -0.84780303112E+01 -0.52363270294E+01 -0.11569215939E+01  0.10031679136E+02  0.00000000000E+00 0.  1.
       11    1    4    4    0    0  0.10981760549E+03 -0.50033687998E+02  0.28278101608E+03  0.30745467871E+03  0.00000000000E+00 0. -1.
      -13    1    3    3    0    0 -0.31675491261E+02  0.32790894494E+02  0.14426651276E+03  0.15129906217E+03  0.00000000000E+00 0.  1.
       13    1    3    3    0    0 -0.26741199505E+02 -0.29462591419E+02  0.55584044465E+03  0.55726271717E+03  0.00000000000E+00 0. -1.
       21    1    1    2  503  502 -0.93661521663E+01 -0.56702751445E+01 -0.11509440856E+02  0.15885340898E+02  0.00000000000E+00 0. -1.
        1    1    1    2  501    0 -0.33556732245E+02  0.57611987097E+02  0.55655238559E+02  0.86848724316E+02  0.00000000000E+00 0. -1.
<mgrwt>
<rscale>  2 0.11408703E+03</rscale>
<asrwt>0</asrwt>
<pdfrwt beam="1">  1       21 0.79157964E-02 0.11444645E+03</pdfrwt>
<pdfrwt beam="2">  1        1 0.16574300E+00 0.11444645E+03</pdfrwt>
<totfact> 0.19624036E+04</totfact>
</mgrwt>
</event>
<event>
10   0  0.3368750E-06  0.9308619E+02  0.7546771E-02  0.1296016E+00
       -1   -1    0    0    0  501  0.00000000000E+00  0.00000000000E+00  0.38768104078E+03  0.38768104078E+03  0.00000000000E+00 0.  1.
        1   -1    0    0  503    0  0.00000000000E+00  0.00000000000E+00 -0.12660103909E+03  0.12660103909E+03  0.00000000000E+00 0. -1.
       23    2    1    2    0    0 -0.62485992768E+01 -0.25021815190E+02  0.34040938525E+03  0.35287950482E+03  0.89332296103E+02 0.  0.
       23    2    1    2    0    0  0.22090769183E+02 -0.14680669966E+02 -0.41956259072E+02  0.10292737446E+03  0.90167580557E+02 0.  0.
      -11    1    3    3    0    0 -0.13501255834E+02  0.17344410644E+02  0.20372613075E+02  0.29969248459E+02  0.00000000000E+00 0. -1.
       11    1    3    3    0    0  0.72526565572E+01 -0.42366225835E+02  0.32003677218E+03  0.32291025636E+03  0.00000000000E+00 0.  1.
      -13    1    4    4    0    0 -0.31664320776E+02 -0.23557448281E+02 -0.19082542610E+02  0.43837495505E+02  0.00000000000E+00 0.  1.
       13    1    4    4    0    0  0.53755089959E+02  0.88767783151E+01 -0.22873716462E+02  0.59089878952E+02  0.00000000000E+00 0. -1.
       21    1    1    2  502  501 -0.15573804883E+02  0.28584628691E+02 -0.21197236756E+02  0.38845170125E+02  0.00000000000E+00 0. -1.
       21    1    1    2  503  502 -0.26836502304E+00  0.11117856465E+02 -0.16175887734E+02  0.19630030467E+02  0.00000000000E+00 0. -1.
<mgrwt>
<rscale>  2 0.92883310E+02</rscale>
<asrwt>0</asrwt>
<pdfrwt beam="1">  1        1 0.19477083E-01 0.93086188E+02</pdfrwt>
<pdfrwt beam="2">  1       -1 0.59643237E-01 0.93086188E+02</pdfrwt>
<totfact> 0.76702224E+02</totfact>
</mgrwt>
</event>
<event>
10   0  0.3368750E-06  0.1034611E+03  0.7546771E-02  0.1285066E+00
       21   -1    0    0  503  502  0.00000000000E+00  0.00000000000E+00  0.13261843716E+03  0.13261843716E+03  0.00000000000E+00 0. -1.
        1   -1    0    0  502    0  0.00000000000E+00  0.00000000000E+00 -0.15690775313E+03  0.15690775313E+03  0.00000000000E+00 0. -1.
       23    2    1    2    0    0 -0.11364519188E+02 -0.51916179605E+02  0.37475843926E+02  0.11154186231E+03  0.90623982298E+02 0.  0.
       23    2    1    2    0    0 -0.22467908453E+02  0.46110709207E+02 -0.89194338927E+02  0.12206647688E+03  0.65677928311E+02 0.  0.
      -11    1    4    4    0    0  0.69058114759E+01  0.47766866666E+02 -0.32478470912E+02  0.58174004985E+02  0.00000000000E+00 0.  1.
       11    1    4    4    0    0 -0.29373719929E+02 -0.16561574596E+01 -0.56715868015E+02  0.63892471894E+02  0.00000000000E+00 0. -1.
      -13    1    3    3    0    0 -0.31892446575E+02 -0.58500024634E+02 -0.18946103504E+01  0.66655611760E+02  0.00000000000E+00 0. -1.
       13    1    3    3    0    0  0.20527927387E+02  0.65838450287E+01  0.39370454276E+02  0.44886250546E+02  0.00000000000E+00 0.  1.
       21    1    1    2  503  501  0.19507946583E+02  0.20172798657E+02  0.12456150473E+02  0.30702727405E+02  0.00000000000E+00 0. -1.
        1    1    1    2  501    0  0.14324481058E+02 -0.14367328259E+02  0.14973028565E+02  0.25215123702E+02  0.00000000000E+00 0. -1.
<mgrwt>
<rscale>  2 0.97765817E+02</rscale>
<asrwt>0</asrwt>
<pdfrwt beam="1">  1       21 0.20402836E-01 0.10346111E+03</pdfrwt>
<pdfrwt beam="2">  1        1 0.24139654E-01 0.10346111E+03</pdfrwt>
<totfact> 0.47595593E+04</totfact>
</mgrwt>
</event>
<event>
10   0  0.3368750E-06  0.2233340E+03  0.7546771E-02  0.1169742E+00
       -3   -1    0    0    0  501  0.00000000000E+00  0.00000000000E+00  0.32441659840E+03  0.32441659840E+03  0.00000000000E+00 0.  1.
        2   -1    0    0  501    0  0.00000000000E+00  0.00000000000E+00 -0.78761922581E+03  0.78761922581E+03  0.00000000000E+00 0.  1.
       23    2    1    2    0    0  0.84900932403E+00  0.56336975674E+01  0.71957035852E+01  0.90261538370E+02  0.89793695735E+02 0.  0.
       23    2    1    2    0    0 -0.56161274275E+02  0.54468537161E+02  0.21361811848E+03  0.24490921266E+03  0.90702324298E+02 0.  0.
      -11    1    3    3    0    0 -0.82124804119E+01 -0.35010187558E+02  0.26195534994E+02  0.44490045190E+02  0.00000000000E+00 0. -1.
       11    1    3    3    0    0  0.90614897359E+01  0.40643885126E+02 -0.18999831409E+02  0.45771493180E+02  0.00000000000E+00 0.  1.
      -13    1    4    4    0    0 -0.50806495559E+02  0.77584407984E+02  0.14326014990E+03  0.17065787677E+03  0.00000000000E+00 0.  1.
       13    1    4    4    0    0 -0.53547787164E+01 -0.23115870823E+02  0.70357968577E+02  0.74251335889E+02  0.00000000000E+00 0. -1.
        2    1    1    2  502    0  0.10617720869E+02 -0.87267094742E+00 -0.70072535752E+03  0.70080633860E+03  0.00000000000E+00 0.  1.
       -3    1    1    2    0  502  0.44694544082E+02 -0.59229563781E+02  0.16708908052E+02  0.76058734572E+02  0.00000000000E+00 0.  1.
<mgrwt>
<rscale>  2 0.17801052E+03</rscale>
<asrwt>0</asrwt>
<pdfrwt beam="1">  1        2 0.12117219E+00 0.22333397E+03</pdfrwt>
<pdfrwt beam="2">  1       -3 0.49910246E-01 0.22333397E+03</pdfrwt>
<totfact> 0.90560438E+01</totfact>
</mgrwt>
</event>
<event>
10   0  0.3368750E-06  0.2981588E+03  0.7546771E-02  0.1121658E+00
       21   -1    0    0  501  502  0.00000000000E+00  0.00000000000E+00  0.83296613997E+02  0.83296613997E+02  0.00000000000E+00 0.  1.
        1   -1    0    0  503    0  0.00000000000E+00  0.00000000000E+00 -0.19496779718E+04  0.19496779718E+04  0.00000000000E+00 0. -1.
       23    2    1    2    0    0  0.22361444257E+02 -0.77469219845E+02 -0.31788879330E+03  0.33982755410E+03  0.89039134121E+02 0.  0.
       23    2    1    2    0    0 -0.23876041963E+03 -0.10162971897E+03 -0.11302438538E+04  0.11648763607E+04  0.11022989104E+03 0.  0.
      -11    1    3    3    0    0 -0.57656792034E+01 -0.32283452060E+02 -0.22713395126E+02  0.39891887042E+02  0.00000000000E+00 0.  1.
       11    1    3    3    0    0  0.28127123460E+02 -0.45185767785E+02 -0.29517539818E+03  0.29993566706E+03  0.00000000000E+00 0. -1.
      -13    1    4    4    0    0  0.31938584094E+01 -0.41286549633E+01 -0.31796160363E+00  0.52294954753E+01  0.00000000000E+00 0. -1.
       13    1    4    4    0    0 -0.24195427804E+03 -0.97501064011E+02 -0.11299258922E+04  0.11596468652E+04  0.00000000000E+00 0.  1.
       21    1    1    2  503  502 -0.16773157363E+02  0.22385296906E+01  0.10323082367E+01  0.16953332516E+02  0.00000000000E+00 0. -1.
        1    1    1    2  501    0  0.23317213274E+03  0.17686040913E+03 -0.41928101894E+03  0.51131733850E+03  0.00000000000E+00 0. -1.
<mgrwt>
<rscale>  2 0.23722099E+03</rscale>
<asrwt>0</asrwt>
<pdfrwt beam="1">  1       21 0.12814864E-01 0.29815883E+03</pdfrwt>
<pdfrwt beam="2">  1        1 0.29995046E+00 0.29815883E+03</pdfrwt>
<totfact> 0.20673635E+03</totfact>
</mgrwt>
</event>
<event>
10   0  0.3368750E-06  0.1130273E+03  0.7546771E-02  0.1262595E+00
       21   -1    0    0  501  502  0.00000000000E+00  0.00000000000E+00  0.96785645409E+01  0.96785645409E+01  0.00000000000E+00 0. -1.
        1   -1    0    0  503    0  0.00000000000E+00  0.00000000000E+00 -0.46691312296E+04  0.46691312296E+04  0.00000000000E+00 0. -1.
       23    2    1    2    0    0  0.62306097487E+02  0.42814274922E+02 -0.32852668574E+04  0.32873924775E+04  0.90861789554E+02 0.  0.
       23    2    1    2    0    0 -0.46285621494E+02 -0.18509974309E+02 -0.80007681277E+03  0.80472665355E+03  0.70548583988E+02 0.  0.
      -11    1    3    3    0    0  0.31554685857E+02  0.68080612496E+02 -0.17469204005E+04  0.17485312562E+04  0.00000000000E+00 0.  1.
       11    1    3    3    0    0  0.30751411630E+02 -0.25266337574E+02 -0.15383464569E+04  0.15388612214E+04  0.00000000000E+00 0. -1.
      -13    1    4    4    0    0 -0.62596469451E+02 -0.11137528960E+02 -0.48614250847E+03  0.49028247070E+03  0.00000000000E+00 0.  1.
       13    1    4    4    0    0  0.16310847958E+02 -0.73724453491E+01 -0.31393430430E+03  0.31444418285E+03  0.00000000000E+00 0. -1.
       21    1    1    2  503  502  0.17361346587E+02 -0.42560622139E+02 -0.51054121802E+03  0.51260624090E+03  0.00000000000E+00 0.  1.
        1    1    1    2  501    0 -0.33381822581E+02  0.18256321526E+02 -0.63567776785E+02  0.74084422113E+02  0.00000000000E+00 0. -1.
<mgrwt>
<rscale>  2 0.10891369E+03</rscale>
<asrwt>0</asrwt>
<pdfrwt beam="1">  1       21 0.14890099E-02 0.11302731E+03</pdfrwt>
<pdfrwt beam="2">  1        1 0.71832788E+00 0.11302731E+03</pdfrwt>
<totfact> 0.76306196E+02</totfact>
</mgrwt>
</event>
<event>
10   0  0.3368750E-06  0.2143310E+03  0.7546771E-02  0.1172450E+00
       -1   -1    0    0    0  501  0.00000000000E+00  0.00000000000E+00  0.70941216418E+03  0.70941216418E+03  0.00000000000E+00 0.  1.
       21   -1    0    0  503  502  0.00000000000E+00  0.00000000000E+00 -0.27830318382E+03  0.27830318382E+03  0.00000000000E+00 0. -1.
       23    2    1    2    0    0 -0.66544535991E+01 -0.31163751430E+02  0.49372559953E+03  0.50301354142E+03  0.90786530180E+02 0.  0.
       23    2    1    2    0    0  0.16654534363E+03 -0.10955847438E+03 -0.56494584917E+02  0.22633240223E+03  0.91073088111E+02 0.  0.
      -11    1    4    4    0    0  0.31721592323E+02  0.15087228648E+02 -0.39486422822E+01  0.35347923046E+02  0.00000000000E+00 0.  1.
       11    1    4    4    0    0  0.13482375131E+03 -0.12464570303E+03 -0.52545942635E+02  0.19098447918E+03  0.00000000000E+00 0. -1.
      -13    1    3    3    0    0  0.17311574441E+02  0.30379785629E+01  0.16967615805E+02  0.24429897860E+02  0.00000000000E+00 0.  1.
       13    1    3    3    0    0 -0.23966028040E+02 -0.34201729993E+02  0.47675798372E+03  0.47858364356E+03  0.00000000000E+00 0. -1.
       21    1    1    2  503  501 -0.17271626550E+03  0.82857585868E+02 -0.31065931230E+02  0.19406540132E+03  0.00000000000E+00 0.  1.
       -1    1    1    2    0  502  0.12825375466E+02  0.57864639940E+02  0.24943896978E+02  0.64304003046E+02  0.00000000000E+00 0.  1.
<mgrwt>
<rscale>  2 0.17528058E+03</rscale>
<asrwt>0</asrwt>
<pdfrwt beam="1">  1       21 0.42815874E-01 0.21433096E+03</pdfrwt>
<pdfrwt beam="2">  1       -1 0.10914033E+00 0.21433096E+03</pdfrwt>
<totfact> 0.40316983E+02</totfact>
</mgrwt>
</event>
<event>
10   0  0.3368750E-06  0.1059932E+03  0.7546771E-02  0.1268608E+00
        2   -1    0    0  503    0  0.00000000000E+00  0.00000000000E+00  0.13041963616E+04  0.13041963616E+04  0.00000000000E+00 0. -1.
       -2   -1    0    0    0  501  0.00000000000E+00  0.00000000000E+00 -0.15513172622E+02  0.15513172622E+02  0.00000000000E+00 0.  1.
       23    2    1    2    0    0 -0.48976555148E+02 -0.14818294920E+02  0.90159904340E+03  0.90756115623E+03  0.90377720805E+02 0.  0.
       23    2    1    2    0    0  0.49561382786E+02 -0.57848344432E+01  0.26520735471E+03  0.28426363542E+03  0.89336881837E+02 0.  0.
      -11    1    4    4    0    0  0.74321685663E+02 -0.70779746884E+01  0.22462079452E+03  0.23670300382E+03  0.00000000000E+00 0.  1.
       11    1    4    4    0    0 -0.24760302877E+02  0.12931402452E+01  0.40586560187E+02  0.47560631599E+02  0.00000000000E+00 0. -1.
      -13    1    3    3    0    0 -0.45390687401E+02  0.24690591523E+01  0.87136265085E+03  0.87254758040E+03  0.00000000000E+00 0. -1.
       13    1    3    3    0    0 -0.35858677471E+01 -0.17287354072E+02  0.30236392552E+02  0.35013575836E+02  0.00000000000E+00 0.  1.
       21    1    1    2  502  501  0.11505339078E+02  0.17161401346E+02  0.39725288582E+02  0.44777059711E+02  0.00000000000E+00 0.  1.
       21    1    1    2  503  502 -0.12090166717E+02  0.34417280169E+01  0.82151502324E+02  0.83107682901E+02  0.00000000000E+00 0. -1.
<mgrwt>
<rscale>  2 0.10577094E+03</rscale>
<asrwt>0</asrwt>
<pdfrwt beam="1">  1        2 0.20064559E+00 0.10599316E+03</pdfrwt>
<pdfrwt beam="2">  1       -2 0.23866419E-02 0.10599316E+03</pdfrwt>
<totfact> 0.99636245E+03</totfact>
</mgrwt>
</event>
<event>
10   0  0.3368750E-06  0.9908405E+02  0.7546771E-02  0.1283570E+00
        1   -1    0    0  502    0  0.00000000000E+00  0.00000000000E+00  0.16645131229E+03  0.16645131229E+03  0.00000000000E+00 0. -1.
       -1   -1    0    0    0  501  0.00000000000E+00  0.00000000000E+00 -0.12089139356E+03  0.12089139356E+03  0.00000000000E+00 0.  1.
       23    2    1    2    0    0 -0.24921622198E+02 -0.31475530852E+02  0.37603529886E+02  0.10400041940E+03  0.88262480591E+02 0.  0.
       23    2    1    2    0    0  0.22605343471E+02  0.22848910794E+02 -0.15996151085E+02  0.97793799747E+02  0.90965246888E+02 0.  0.
      -11    1    3    3    0    0 -0.42978537262E+02 -0.53333408173E+02  0.28903158888E+02  0.74343793865E+02  0.00000000000E+00 0. -1.
       11    1    3    3    0    0  0.18056915064E+02  0.21857877321E+02  0.87003709983E+01  0.29656625535E+02  0.00000000000E+00 0.  1.
      -13    1    4    4    0    0 -0.78216440951E+01 -0.21551193897E+01  0.33541561325E+02  0.34508824843E+02  0.00000000000E+00 0. -1.
       13    1    4    4    0    0  0.30426987566E+02  0.25004030184E+02 -0.49537712409E+02  0.63284974904E+02  0.00000000000E+00 0.  1.
       21    1    1    2  502  503 -0.18277114856E+02  0.35679018351E+01  0.49182828457E+02  0.52590241167E+02  0.00000000000E+00 0. -1.
       21    1    1    2  503  501  0.20593393584E+02  0.50587182225E+01 -0.25230288527E+02  0.32958245531E+02  0.00000000000E+00 0. -1.
<mgrwt>
<rscale>  2 0.98459324E+02</rscale>
<asrwt>0</asrwt>
<pdfrwt beam="1">  1        1 0.25607894E-01 0.99084049E+02</pdfrwt>
<pdfrwt beam="2">  1       -1 0.18598676E-01 0.99084049E+02</pdfrwt>
<totfact> 0.39696118E+03</totfact>
</mgrwt>
</event>
<event>
10   0  0.3368750E-06  0.1230714E+04  0.7546771E-02  0.9698416E-01
       21   -1    0    0  501  502  0.00000000000E+00  0.00000000000E+00  0.29598956170E+03  0.29598956170E+03  0.00000000000E+00 0. -1.
        2   -1    0    0  503    0  0.00000000000E+00  0.00000000000E+00 -0.36678701331E+04  0.36678701331E+04  0.00000000000E+00 0. -1.
       23    2    1    2    0    0 -0.37420575045E+01 -0.10290015039E+03 -0.16831383922E+04  0.16887298379E+04  0.90835972837E+02 0.  0.
       23    2    1    2    0    0  0.18524258819E+03 -0.56207262646E+02 -0.19164821818E+04  0.19282495575E+04  0.88138131455E+02 0.  0.
      -11    1    3    3    0    0 -0.39623449259E+02 -0.66267574089E+02 -0.69790698836E+03  0.70216491902E+03  0.00000000000E+00 0.  1.
       11    1    3    3    0    0  0.35881391754E+02 -0.36632576305E+02 -0.98523140386E+03  0.98656491884E+03  0.00000000000E+00 0. -1.
      -13    1    4    4    0    0  0.18044836335E+03 -0.69185919007E+02 -0.16270917452E+04  0.16385285626E+04  0.00000000000E+00 0. -1.
       13    1    4    4    0    0  0.47942248404E+01  0.12978656361E+02 -0.28939043659E+03  0.28972099493E+03  0.00000000000E+00 0.  1.
       21    1    1    2  503  502 -0.41277413880E+02  0.13876764597E+02  0.97104639266E+02  0.10642227426E+03  0.00000000000E+00 0. -1.
        2    1    1    2  501    0 -0.14022311681E+03  0.14523064844E+03  0.13063536328E+03  0.24045802518E+03  0.00000000000E+00 0. -1.
<mgrwt>
<rscale>  2 0.71111162E+03</rscale>
<asrwt>0</asrwt>
<pdfrwt beam="1">  1       21 0.45536856E-01 0.12307144E+04</pdfrwt>
<pdfrwt beam="2">  1        2 0.56428771E+00 0.12307144E+04</pdfrwt>
<totfact> 0.31793820E+01</totfact>
</mgrwt>
</event>
<event>
10   0  0.3368750E-06  0.1738535E+03  0.7546771E-02  0.1187415E+00
        2   -1    0    0  502    0  0.00000000000E+00  0.00000000000E+00  0.22883204274E+04  0.22883204274E+04  0.00000000000E+00 0. -1.
        1   -1    0    0  501    0  0.00000000000E+00  0.00000000000E+00 -0.99687147978E+02  0.99687147978E+02  0.00000000000E+00 0. -1.
       23    2    1    2    0    0 -0.82387028070E+02 -0.51246254095E+02  0.61894030979E+03  0.63327460930E+03  0.92389516450E+02 0.  0.
       23    2    1    2    0    0 -0.89443903451E+02  0.11608217163E+02  0.10783371072E+04  0.10858678603E+04  0.90350045175E+02 0.  0.
      -11    1    3    3    0    0 -0.80335655186E+02 -0.41535983392E+01  0.47636023501E+03  0.48310469193E+03  0.00000000000E+00 0.  1.
       11    1    3    3    0    0 -0.20513728848E+01 -0.47092655755E+02  0.14258007478E+03  0.15016991736E+03  0.00000000000E+00 0. -1.
      -13    1    4    4    0    0 -0.66994945637E+02  0.49631638190E+02  0.72810929532E+03  0.73286749702E+03  0.00000000000E+00 0. -1.
       13    1    4    4    0    0 -0.22448957815E+02 -0.38023421027E+02  0.35022781190E+03  0.35300036329E+03  0.00000000000E+00 0.  1.
        2    1    1    2  501    0  0.20133786323E+03  0.85896770338E+02  0.50548464361E+02  0.22465604282E+03  0.00000000000E+00 0. -1.
        1    1    1    2  502    0 -0.29506931709E+02 -0.46258733407E+02  0.44080739801E+03  0.44420906292E+03  0.00000000000E+00 0. -1.
<mgrwt>
<rscale>  2 0.16114058E+03</rscale>
<asrwt>0</asrwt>
<pdfrwt beam="1">  1        2 0.35204930E+00 0.17385353E+03</pdfrwt>
<pdfrwt beam="2">  1        1 0.15336484E-01 0.17385353E+03</pdfrwt>
<totfact> 0.26586615E+02</totfact>
</mgrwt>
</event>
<event>
10   0  0.3368750E-06  0.1359644E+03  0.7546771E-02  0.1218948E+00
        2   -1    0    0  502    0  0.00000000000E+00  0.00000000000E+00  0.73543456166E+03  0.73543456166E+03  0.00000000000E+00 0. -1.
       -2   -1    0    0    0  501  0.00000000000E+00  0.00000000000E+00 -0.42423176338E+02  0.42423176338E+02  0.00000000000E+00 0.  1.
       23    2    1    2    0    0  0.10883981985E+03  0.33368652188E+01  0.48963928630E+03  0.50987869171E+03  0.91500866233E+02 0.  0.
       23    2    1    2    0    0 -0.95799188742E+02  0.24983396493E+02  0.12664705868E+03  0.18479491706E+03  0.91148391297E+02 0.  0.
      -11    1    4    4    0    0 -0.68749312587E+02 -0.25136523977E+02  0.47407831917E+02  0.87211325789E+02  0.00000000000E+00 0. -1.
       11    1    4    4    0    0 -0.27049876155E+02  0.50119920470E+02  0.79239226761E+02  0.97583591272E+02  0.00000000000E+00 0.  1.
      -13    1    3    3    0    0  0.51314329250E+02  0.18924142999E+02  0.86379819563E+02  0.10223872457E+03  0.00000000000E+00 0.  1.
       13    1    3    3    0    0  0.57525490595E+02 -0.15587277780E+02  0.40325946674E+03  0.40763996714E+03  0.00000000000E+00 0. -1.
       21    1    1    2  502  503 -0.58357591267E+01 -0.91637921928E+01  0.36029970573E+02  0.37632299310E+02  0.00000000000E+00 0.  1.
       21    1    1    2  503  501 -0.72048719766E+01 -0.19156469519E+02  0.40695069771E+02  0.45551829911E+02  0.00000000000E+00 0.  1.
<mgrwt>
<rscale>  2 0.13590516E+03</rscale>
<asrwt>0</asrwt>
<pdfrwt beam="1">  1        2 0.11314378E+00 0.13596444E+03</pdfrwt>
<pdfrwt beam="2">  1       -2 0.65266425E-02 0.13596444E+03</pdfrwt>
<totfact> 0.49754603E+03</totfact>
</mgrwt>
</event>
<event>
10   0  0.3368750E-06  0.1211291E+03  0.7546771E-02  0.1242698E+00
       -2   -1    0    0    0  501  0.00000000000E+00  0.00000000000E+00  0.11300979562E+03  0.11300979562E+03  0.00000000000E+00 0.  1.
        2   -1    0    0  503    0  0.00000000000E+00  0.00000000000E+00 -0.27970905354E+03  0.27970905354E+03  0.00000000000E+00 0. -1.
       23    2    1    2    0    0 -0.58147166565E+02 -0.10913764461E+02 -0.97802553290E+02  0.14360984944E+03  0.86938174531E+02 0.  0.
       23    2    1    2    0    0  0.10502006456E+03  0.55350227712E+02 -0.91099618296E+02  0.17546498106E+03  0.91629457355E+02 0.  0.
      -11    1    4    4    0    0  0.22774390094E+02  0.41775433103E+02 -0.77592995134E+02  0.91019407540E+02  0.00000000000E+00 0. -1.
       11    1    4    4    0    0  0.82245674467E+02  0.13574794610E+02 -0.13506623162E+02  0.84445573516E+02  0.00000000000E+00 0.  1.
      -13    1    3    3    0    0 -0.22807097318E+02 -0.32050441460E+02 -0.20639524181E+01  0.39391044483E+02  0.00000000000E+00 0.  1.
       13    1    3    3    0    0 -0.35340069247E+02  0.21136676999E+02 -0.95738600872E+02  0.10421880495E+03  0.00000000000E+00 0. -1.
       21    1    1    2  502  501 -0.29356813420E+02 -0.93337306777E+01  0.12404241560E+02  0.33208526484E+02  0.00000000000E+00 0.  1.
       21    1    1    2  503  502 -0.17516084576E+02 -0.35102732574E+02  0.97986721047E+01  0.40435492183E+02  0.00000000000E+00 0.  1.
<mgrwt>
<rscale>  2 0.12024225E+03</rscale>
<asrwt>0</asrwt>
<pdfrwt beam="1">  1        2 0.43032162E-01 0.12112913E+03</pdfrwt>
<pdfrwt beam="2">  1       -2 0.17386122E-01 0.12112913E+03</pdfrwt>
<totfact> 0.30340045E+03</totfact>
</mgrwt>
</event>
<event>
10   0  0.3368750E-06  0.9063576E+02  0.7546771E-02  0.1303646E+00
       21   -1    0    0  503  502  0.00000000000E+00  0.00000000000E+00  0.18659035194E+04  0.18659035194E+04  0.00000000000E+00 0. -1.
       21   -1    0    0  501  503  0.00000000000E+00  0.00000000000E+00 -0.22122421340E+02  0.22122421340E+02  0.00000000000E+00 0.  1.
       23    2    1    2    0    0  0.29063967976E+02 -0.24259358375E+02  0.79138542635E+03  0.79743548553E+03  0.90439094590E+02 0.  0.
       23    2    1    2    0    0  0.94497224648E+01 -0.11052425701E+02  0.31228499760E+03  0.32440663352E+03  0.86638852575E+02 0.  0.
      -11    1    4    4    0    0  0.33300406458E+02 -0.32488104624E+02  0.25062353579E+03  0.25490498368E+03  0.00000000000E+00 0. -1.
       11    1    4    4    0    0 -0.23850683993E+02  0.21435678923E+02  0.61661461814E+02  0.69501649843E+02  0.00000000000E+00 0.  1.
      -13    1    3    3    0    0  0.13997755040E+02 -0.19171754815E+02  0.44970168873E+02  0.50850854637E+02  0.00000000000E+00 0.  1.
       13    1    3    3    0    0  0.15066212936E+02 -0.50876035606E+01  0.74641525748E+03  0.74658463089E+03  0.00000000000E+00 0. -1.
        4    1    1    2  501    0 -0.98073589492E+01 -0.66496548712E+01 -0.92923344313E+01  0.15058209676E+02  0.00000000000E+00 0. -1.
       -4    1    1    2    0  502 -0.28706331492E+02  0.41961438948E+02  0.74940300852E+03  0.75112561200E+03  0.00000000000E+00 0.  1.
<mgrwt>
<rscale>  2 0.89672608E+02</rscale>
<asrwt>0</asrwt>
<pdfrwt beam="1">  1       21 0.28706208E+00 0.90635761E+02</pdfrwt>
<pdfrwt beam="2">  1       21 0.34034494E-02 0.90635761E+02</pdfrwt>
<totfact> 0.23688005E+04</totfact>
</mgrwt>
</event>
<event>
10   0  0.3368750E-06  0.1412181E+03  0.7546771E-02  0.1212620E+00
       21   -1    0    0  503  502  0.00000000000E+00  0.00000000000E+00  0.30011611158E+03  0.30011611158E+03  0.00000000000E+00 0. -1.
        1   -1    0    0  502    0  0.00000000000E+00  0.00000000000E+00 -0.12413617144E+04  0.12413617144E+04  0.00000000000E+00 0. -1.
       23    2    1    2    0    0  0.13337826218E+02  0.61361360612E+02 -0.15956928460E+03  0.19308305584E+03  0.88744552955E+02 0.  0.
       23    2    1    2    0    0 -0.35322246222E+02 -0.11533842180E+03 -0.10503295719E+04  0.10613126173E+04  0.92960473029E+02 0.  0.
      -11    1    4    4    0    0 -0.22259699226E+02  0.10836824666E+02 -0.21193449128E+03  0.21337563022E+03  0.00000000000E+00 0.  1.
       11    1    4    4    0    0 -0.13062546995E+02 -0.12617524647E+03 -0.83839508059E+03  0.84793698711E+03  0.00000000000E+00 0. -1.
      -13    1    3    3    0    0  0.60393647250E+01  0.83541819224E+02 -0.10972927586E+03  0.13804428081E+03  0.00000000000E+00 0.  1.
       13    1    3    3    0    0  0.72984614926E+01 -0.22180458612E+02 -0.49840008746E+02  0.55038775025E+02  0.00000000000E+00 0. -1.
       21    1    1    2  503  501  0.67901227895E+01  0.17205055630E+02  0.23276977984E+03  0.23350351199E+03  0.00000000000E+00 0. -1.
        1    1    1    2  501    0  0.15194297215E+02  0.36772005559E+02  0.35883473810E+02  0.53578640831E+02  0.00000000000E+00 0. -1.
<mgrwt>
<rscale>  2 0.14052835E+03</rscale>
<asrwt>0</asrwt>
<pdfrwt beam="1">  1       21 0.46171709E-01 0.14121810E+03</pdfrwt>
<pdfrwt beam="2">  1        1 0.19097873E+00 0.14121810E+03</pdfrwt>
<totfact> 0.56632775E+02</totfact>
</mgrwt>
</event>
<event>
10   0  0.3368750E-06  0.4642871E+03  0.7546771E-02  0.1041468E+00
       21   -1    0    0  501  502  0.00000000000E+00  0.00000000000E+00  0.53762045251E+03  0.53762045251E+03  0.00000000000E+00 0. -1.
        2   -1    0    0  503    0  0.00000000000E+00  0.00000000000E+00 -0.43117903667E+03  0.43117903667E+03  0.00000000000E+00 0. -1.
       23    2    1    2    0    0 -0.22121874090E+02 -0.18133672856E+03 -0.13682682214E+03  0.24489282544E+03  0.88761085254E+02 0.  0.
       23    2    1    2    0    0 -0.82910949321E+02  0.41630439614E+02 -0.33678970655E+02  0.13409982449E+03  0.90780894710E+02 0.  0.
      -11    1    4    4    0    0 -0.61987381423E+02  0.66105973529E+02 -0.43379891000E+02  0.10047014549E+03  0.00000000000E+00 0.  1.
       11    1    4    4    0    0 -0.20923567899E+02 -0.24475533916E+02  0.97009203451E+01  0.33629678999E+02  0.00000000000E+00 0. -1.
      -13    1    3    3    0    0  0.15378860135E+02 -0.15658407809E+03 -0.11534474655E+03  0.19508842458E+03  0.00000000000E+00 0.  1.
       13    1    3    3    0    0 -0.37500734225E+02 -0.24752650473E+02 -0.21482075595E+02  0.49804400857E+02  0.00000000000E+00 0. -1.
       21    1    1    2  503  502 -0.20233422993E+02 -0.13058904427E+03 -0.55569550239E+02  0.14335572818E+03  0.00000000000E+00 0. -1.
        2    1    1    2  501    0  0.12526624640E+03  0.27029533321E+03  0.33251675887E+03  0.44645111107E+03  0.00000000000E+00 0. -1.
<mgrwt>
<rscale>  2 0.40674827E+03</rscale>
<asrwt>0</asrwt>
<pdfrwt beam="1">  1       21 0.82710839E-01 0.46428709E+03</pdfrwt>
<pdfrwt beam="2">  1        2 0.66335236E-01 0.46428709E+03</pdfrwt>
<totfact> 0.10697393E+03</totfact>
</mgrwt>
</event>
<event>
10   0  0.3368750E-06  0.1231435E+03  0.7546771E-02  0.1238051E+00
        2   -1    0    0  502    0  0.00000000000E+00  0.00000000000E+00  0.34883330180E+03  0.34883330180E+03  0.00000000000E+00 0. -1.
       -2   -1    0    0    0  501  0.00000000000E+00  0.00000000000E+00 -0.78374396771E+02  0.78374396771E+02  0.00000000000E+00 0.  1.
       23    2    1    2    0    0  0.75585337325E+02 -0.21354006957E+02  0.12923883262E+03  0.17687229333E+03  0.91716931145E+02 0.  0.
       23    2    1    2    0    0 -0.88993643511E+02 -0.16493765856E+02  0.12774255849E+03  0.18135731327E+03  0.91544529768E+02 0.  0.
      -11    1    4    4    0    0 -0.54226697797E+02  0.25816414204E+02  0.25246408932E+02  0.65149084110E+02  0.00000000000E+00 0.  1.
       11    1    4    4    0    0 -0.34766945714E+02 -0.42310180060E+02  0.10249614956E+03  0.11620822916E+03  0.00000000000E+00 0. -1.
      -13    1    3    3    0    0  0.11515505537E+02  0.28111820127E+02  0.85605409385E+01  0.31562068370E+02  0.00000000000E+00 0.  1.
       13    1    3    3    0    0  0.64069831788E+02 -0.49465827084E+02  0.12067829168E+03  0.14531022496E+03  0.00000000000E+00 0. -1.
       21    1    1    2  502  503  0.38798980772E+01 -0.11251215390E+02  0.14742741994E+02  0.18947081526E+02  0.00000000000E+00 0. -1.
       21    1    1    2  503  501  0.95284081087E+01  0.49098988202E+02 -0.12652280792E+01  0.50031010440E+02  0.00000000000E+00 0.  1.
<mgrwt>
<rscale>  2 0.12311145E+03</rscale>
<asrwt>0</asrwt>
<pdfrwt beam="1">  1        2 0.53666662E-01 0.12314355E+03</pdfrwt>
<pdfrwt beam="2">  1       -2 0.12057600E-01 0.12314355E+03</pdfrwt>
<totfact> 0.43573621E+03</totfact>
</mgrwt>
</event>
<event>
10   0  0.3368750E-06  0.1047732E+03  0.7546771E-02  0.1275258E+00
        1   -1    0    0  503    0  0.00000000000E+00  0.00000000000E+00  0.32968393933E+04  0.32968393933E+04  0.00000000000E+00 0. -1.
       21   -1    0    0  501  502  0.00000000000E+00  0.00000000000E+00 -0.35241362121E+02  0.35241362121E+02  0.00000000000E+00 0.  1.
       23    2    1    2    0    0  0.24288432601E+02 -0.18666530256E+02  0.31017302946E+04  0.31032129813E+04  0.90893452397E+02 0.  0.
       23    2    1    2    0    0  0.12430865615E+02  0.25577937055E+02  0.13964336052E+03  0.16852221975E+03  0.89948391464E+02 0.  0.
      -11    1    4    4    0    0 -0.20067301646E+02  0.42893176215E+02  0.38978837643E+02  0.61334092846E+02  0.00000000000E+00 0.  1.
       11    1    4    4    0    0  0.32498167261E+02 -0.17315239160E+02  0.10066452288E+03  0.10718812690E+03  0.00000000000E+00 0. -1.
      -13    1    3    3    0    0 -0.71139257094E+01 -0.17767641616E+02  0.13849511555E+03  0.13981128016E+03  0.00000000000E+00 0.  1.
       13    1    3    3    0    0  0.31402358310E+02 -0.89888863993E+00  0.29632351791E+04  0.29634017012E+04  0.00000000000E+00 0. -1.
       21    1    1    2  503  502 -0.34934824284E+02 -0.20217725741E+02  0.60359399814E+01  0.40812142229E+02  0.00000000000E+00 0.  1.
        1    1    1    2  501    0 -0.17844739318E+01  0.13306318942E+02  0.14188436085E+02  0.19533412132E+02  0.00000000000E+00 0. -1.
<mgrwt>
<rscale>  2 0.10243450E+03</rscale>
<asrwt>0</asrwt>
<pdfrwt beam="1">  1       21 0.54217480E-02 0.10477318E+03</pdfrwt>
<pdfrwt beam="2">  1        1 0.50720606E+00 0.10477318E+03</pdfrwt>
<totfact> 0.13119840E+03</totfact>
</mgrwt>
</event>
<event>
10   0  0.3368750E-06  0.4302187E+03  0.7546771E-02  0.1044039E+00
        2   -1    0    0  503    0  0.00000000000E+00  0.00000000000E+00  0.12730150277E+04  0.12730150277E+04  0.00000000000E+00 0. -1.
       21   -1    0    0  501  502  0.00000000000E+00  0.00000000000E+00 -0.23496883174E+03  0.23496883174E+03  0.00000000000E+00 0. -1.
       23    2    1    2    0    0  0.31071558015E+03  0.45465393971E+01  0.85408963932E+03  0.91349397647E+03  0.91854723777E+02 0.  0.
       23    2    1    2    0    0 -0.46910370891E+02 -0.67792139369E+02  0.19379246548E+03  0.22983116059E+03  0.92035241304E+02 0.  0.
      -11    1    4    4    0    0 -0.36679282187E+02 -0.12561316977E+02  0.15922310481E+03  0.16387542076E+03  0.00000000000E+00 0.  1.
       11    1    4    4    0    0 -0.10231088703E+02 -0.55230822392E+02  0.34569360674E+02  0.65955739823E+02  0.00000000000E+00 0. -1.
      -13    1    3    3    0    0  0.11290950976E+03  0.43538306360E+02  0.27999291510E+03  0.30502487444E+03  0.00000000000E+00 0.  1.
       13    1    3    3    0    0  0.19780607039E+03 -0.38991766962E+02  0.57409672422E+03  0.60846910204E+03  0.00000000000E+00 0. -1.
       21    1    1    2  503  502 -0.24667057539E+02 -0.30050615233E+02 -0.88102322425E+02  0.96299129904E+02  0.00000000000E+00 0. -1.
        2    1    1    2  501    0 -0.23913815173E+03  0.93296215205E+02  0.78266413589E+02  0.26835959248E+03  0.00000000000E+00 0. -1.
<mgrwt>
<rscale>  2 0.39925185E+03</rscale>
<asrwt>0</asrwt>
<pdfrwt beam="1">  1       21 0.36149051E-01 0.43021866E+03</pdfrwt>
<pdfrwt beam="2">  1        2 0.19584847E+00 0.43021866E+03</pdfrwt>
<totfact> 0.15704498E+03</totfact>
</mgrwt>
</event>
<event>
10   0  0.3368750E-06  0.1052462E+03  0.7546771E-02  0.1270246E+00
       -2   -1    0    0    0  501  0.00000000000E+00  0.00000000000E+00  0.20206913523E+02  0.20206913523E+02  0.00000000000E+00 0.  1.
        2   -1    0    0  502    0  0.00000000000E+00  0.00000000000E+00 -0.16007282114E+04  0.16007282114E+04  0.00000000000E+00 0. -1.
       23    2    1    2    0    0  0.21172575586E+02 -0.74854109879E+01 -0.18122076632E+03  0.20375293571E+03  0.90387960093E+02 0.  0.
       23    2    1    2    0    0 -0.14805389089E+02  0.75338866658E+02 -0.11487578784E+04  0.11549755198E+04  0.91807645300E+02 0.  0.
      -11    1    3    3    0    0  0.39094688921E+02  0.17707822498E+02 -0.38288380514E+02  0.57514882959E+02  0.00000000000E+00 0.  1.
       11    1    3    3    0    0 -0.17922113335E+02 -0.25193233486E+02 -0.14293238580E+03  0.14623805275E+03  0.00000000000E+00 0. -1.
      -13    1    4    4    0    0 -0.24498938000E+02  0.25729352623E+02 -0.12446636373E+03  0.12943752643E+03  0.00000000000E+00 0.  1.
       13    1    4    4    0    0  0.96935489108E+01  0.49609514035E+02 -0.10242915147E+04  0.10255379934E+04  0.00000000000E+00 0. -1.
       21    1    1    2  502  503  0.66120376548E+01 -0.18050811368E+02 -0.12585904047E+03  0.12731869031E+03  0.00000000000E+00 0. -1.
       21    1    1    2  503  501 -0.12979224152E+02 -0.49802644303E+02 -0.12468361265E+03  0.13488797909E+03  0.00000000000E+00 0. -1.
<mgrwt>
<rscale>  2 0.10493581E+03</rscale>
<asrwt>0</asrwt>
<pdfrwt beam="1">  1        2 0.24626588E+00 0.10524620E+03</pdfrwt>
<pdfrwt beam="2">  1       -2 0.31087559E-02 0.10524620E+03</pdfrwt>
<totfact> 0.47568596E+03</totfact>
</mgrwt>
</event>
<event>
10   0  0.3368750E-06  0.1264050E+03  0.7546771E-02  0.1235995E+00
       -1   -1    0    0    0  501  0.00000000000E+00  0.00000000000E+00  0.42824231036E+02  0.42824231036E+02  0.00000000000E+00 0.  1.
       21   -1    0    0  501  502  0.00000000000E+00  0.00000000000E+00 -0.11934976438E+04  0.11934976438E+04  0.00000000000E+00 0.  1.
       23    2    1    2    0    0 -0.37260097418E+02  0.51202289697E+02 -0.69035043791E+03  0.69778954952E+03  0.79476656816E+02 0.  0.
       23    2    1    2    0    0 -0.21122004003E+02 -0.95139012793E+02 -0.11911806150E+03  0.17864193779E+03  0.90698724097E+02 0.  0.
      -11    1    4    4    0    0  0.18917555919E+02 -0.86871018381E+02 -0.99046519998E+02  0.13309643451E+03  0.00000000000E+00 0.  1.
       11    1    4    4    0    0 -0.40039559922E+02 -0.82679944116E+01 -0.20071541506E+02  0.45545503277E+02  0.00000000000E+00 0. -1.
      -13    1    3    3    0    0 -0.38755254958E+02  0.11170198402E+02 -0.13250253297E+03  0.13850510591E+03  0.00000000000E+00 0.  1.
       13    1    3    3    0    0  0.14951575394E+01  0.40032091295E+02 -0.55784790494E+03  0.55928444362E+03  0.00000000000E+00 0. -1.
       21    1    1    2  503  502  0.38004686347E+02 -0.21098385790E+02 -0.17358859939E+03  0.17894831630E+03  0.00000000000E+00 0.  1.
       -1    1    1    2    0  503  0.20377415074E+02  0.65035108886E+02 -0.16761631400E+03  0.18094207126E+03  0.00000000000E+00 0.  1.
<mgrwt>
<rscale>  2 0.12440967E+03</rscale>
<asrwt>0</asrwt>
<pdfrwt beam="1">  1       21 0.18361502E+00 0.12640498E+03</pdfrwt>
<pdfrwt beam="2">  1       -1 0.65883432E-02 0.12640498E+03</pdfrwt>
<totfact> 0.18340496E+03</totfact>
</mgrwt>
</event>
<event>
10   0  0.3368750E-06  0.1283788E+03  0.7546771E-02  0.1231610E+00
       -2   -1    0    0    0  501  0.00000000000E+00  0.00000000000E+00  0.46771811189E+03  0.46771811189E+03  0.00000000000E+00 0.  1.
        2   -1    0    0  502    0  0.00000000000E+00  0.00000000000E+00 -0.12578598886E+04  0.12578598886E+04  0.00000000000E+00 0. -1.
       23    2    1    2    0    0 -0.91414463777E+02  0.40462567048E+00 -0.92286970602E+01  0.14442922854E+03  0.11143547594E+03 0.  0.
       23    2    1    2    0    0  0.59836758407E+02  0.66814411375E+02 -0.86923457791E+03  0.88156978326E+03  0.11641274887E+03 0.  0.
      -11    1    3    3    0    0 -0.31587957181E+02  0.28049698114E+02  0.43044200366E+02  0.60310760137E+02  0.00000000000E+00 0.  1.
       11    1    3    3    0    0 -0.59826506596E+02 -0.27645072444E+02 -0.52272897426E+02  0.84118468407E+02  0.00000000000E+00 0. -1.
      -13    1    4    4    0    0  0.27274374792E+02  0.91985299359E+02 -0.73304921727E+03  0.73930125238E+03  0.00000000000E+00 0. -1.
       13    1    4    4    0    0  0.32562383615E+02 -0.25170887984E+02 -0.13618536064E+03  0.14226853088E+03  0.00000000000E+00 0.  1.
       21    1    1    2  502  503 -0.12153671284E+02 -0.68307376497E+02 -0.30044872556E+03  0.30835538929E+03  0.00000000000E+00 0.  1.
       21    1    1    2  503  501  0.43731376654E+02  0.10883394516E+01  0.38877022383E+03  0.39122359940E+03  0.00000000000E+00 0.  1.
<mgrwt>
<rscale>  2 0.12723985E+03</rscale>
<asrwt>0</asrwt>
<pdfrwt beam="1">  1        2 0.19351691E+00 0.12837881E+03</pdfrwt>
<pdfrwt beam="2">  1       -2 0.71956633E-01 0.12837881E+03</pdfrwt>
<totfact> 0.35937565E+01</totfact>
</mgrwt>
</event>
<event>
10   0  0.3368750E-06  0.1354178E+03  0.7546771E-02  0.1236696E+00
        2   -1    0    0  502    0  0.00000000000E+00  0.00000000000E+00  0.17509781927E+04  0.17509781927E+04  0.00000000000E+00 0. -1.
       21   -1    0    0  503  502  0.00000000000E+00  0.00000000000E+00 -0.16313101323E+02  0.16313101323E+02  0.00000000000E+00 0. -1.
       23    2    1    2    0    0  0.14320728038E+02 -0.24597627996E+02  0.15510061572E+03  0.18193268830E+03  0.90736847646E+02 0.  0.
       23    2    1    2    0    0 -0.18995749539E+02  0.50715454861E+02  0.11068899739E+04  0.11118780393E+04  0.90191263989E+02 0.  0.
      -11    1    3    3    0    0  0.15245402498E+01 -0.57875492565E+02  0.11128357772E+03  0.12544294134E+03  0.00000000000E+00 0.  1.
       11    1    3    3    0    0  0.12796187788E+02  0.33277864569E+02  0.43817038001E+02  0.56489746958E+02  0.00000000000E+00 0. -1.
      -13    1    4    4    0    0 -0.72697691998E+01 -0.24840344794E+02  0.18172275781E+03  0.18355667512E+03  0.00000000000E+00 0.  1.
       13    1    4    4    0    0 -0.11725980339E+02  0.75555799655E+02  0.92516721608E+03  0.92832136418E+03  0.00000000000E+00 0. -1.
       21    1    1    2  503  501  0.52433793844E+01 -0.11594917340E+02  0.25891723321E+03  0.25922976062E+03  0.00000000000E+00 0. -1.
        2    1    1    2  501    0 -0.56835788372E+00 -0.14522909525E+02  0.21375726850E+03  0.21425080576E+03  0.00000000000E+00 0. -1.
<mgrwt>
<rscale>  2 0.12396461E+03</rscale>
<asrwt>0</asrwt>
<pdfrwt beam="1">  1       21 0.25097079E-02 0.13541778E+03</pdfrwt>
<pdfrwt beam="2">  1        2 0.26938126E+00 0.13541778E+03</pdfrwt>
<totfact> 0.11072934E+05</totfact>
</mgrwt>
</event>
<event>
10   0  0.3368750E-06  0.9697081E+02  0.7546771E-02  0.1287137E+00
        2   -1    0    0  503    0  0.00000000000E+00  0.00000000000E+00  0.20732046444E+03  0.20732046444E+03  0.00000000000E+00 0. -1.
       21   -1    0    0  501  502  0.00000000000E+00  0.00000000000E+00 -0.11545533585E+03  0.11545533585E+03  0.00000000000E+00 0.  1.
       23    2    1    2    0    0 -0.17654096427E+02  0.14852398671E+02  0.94223458010E+02  0.13358598523E+03  0.91841681946E+02 0.  0.
       23    2    1    2    0    0  0.38178273412E+02  0.15176684132E+01  0.54326881058E+02  0.11386537175E+03  0.92487993820E+02 0.  0.
      -11    1    3    3    0    0 -0.51480080691E+01 -0.54115659730E+01 -0.17671603867E+02  0.19185218701E+02  0.00000000000E+00 0.  1.
       11    1    3    3    0    0 -0.12506088358E+02  0.20263964644E+02  0.11189506188E+03  0.11440076653E+03  0.00000000000E+00 0. -1.
      -13    1    4    4    0    0  0.43220357008E+02 -0.40566846251E+01  0.77869387797E+02  0.89152103205E+02  0.00000000000E+00 0.  1.
       13    1    4    4    0    0 -0.50420835952E+01  0.55743530383E+01 -0.23542506739E+02  0.24713268548E+02  0.00000000000E+00 0. -1.
       21    1    1    2  503  502 -0.11978812245E+02 -0.32401325306E+01  0.36928732584E+01  0.12947112207E+02  0.00000000000E+00 0. -1.
        2    1    1    2  501    0 -0.85453647407E+01 -0.13129934553E+02 -0.60378083737E+02  0.62377331104E+02  0.00000000000E+00 0. -1.
<mgrwt>
<rscale>  2 0.96816381E+02</rscale>
<asrwt>0</asrwt>
<pdfrwt beam="1">  1       21 0.17762359E-01 0.96970809E+02</pdfrwt>
<pdfrwt beam="2">  1        2 0.31895456E-01 0.96970809E+02</pdfrwt>
<totfact> 0.57442017E+04</totfact>
</mgrwt>
</event>
<event>
10   0  0.3368750E-06  0.1102622E+03  0.7546771E-02  0.1260399E+00
        1   -1    0    0  503    0  0.00000000000E+00  0.00000000000E+00  0.75321989779E+03  0.75321989779E+03  0.00000000000E+00 0. -1.
       -1   -1    0    0    0  501  0.00000000000E+00  0.00000000000E+00 -0.54049498902E+02  0.54049498902E+02  0.00000000000E+00 0.  1.
       23    2    1    2    0    0  0.34630761555E+02 -0.54468375352E+02  0.51304097401E+02  0.12260117679E+03  0.90735024007E+02 0.  0.
       23    2    1    2    0    0 -0.29286959442E+02  0.36779579084E+02  0.17253267927E+03  0.20015475919E+03  0.89910726716E+02 0.  0.
      -11    1    4    4    0    0  0.12988101549E+02 -0.21528351909E+02  0.22539011282E+02  0.33766370065E+02  0.00000000000E+00 0.  1.
       11    1    4    4    0    0 -0.42275060991E+02  0.58307930994E+02  0.14999366799E+03  0.16638838912E+03  0.00000000000E+00 0. -1.
      -13    1    3    3    0    0  0.11830275947E+02 -0.77741847238E+02  0.33524736097E+02  0.85484841764E+02  0.00000000000E+00 0.  1.
       13    1    3    3    0    0  0.22800485608E+02  0.23273471887E+02  0.17779361304E+02  0.37116335029E+02  0.00000000000E+00 0. -1.
       21    1    1    2  502  501  0.88396668975E+01 -0.87676422890E+01  0.53152536740E+01  0.13537473316E+02  0.00000000000E+00 0.  1.
       21    1    1    2  503  502 -0.14183469011E+02  0.26456438556E+02  0.47001836854E+03  0.47097598739E+03  0.00000000000E+00 0. -1.
<mgrwt>
<rscale>  2 0.11009247E+03</rscale>
<asrwt>0</asrwt>
<pdfrwt beam="1">  1        1 0.11587998E+00 0.11026219E+03</pdfrwt>
<pdfrwt beam="2">  1       -1 0.83153075E-02 0.11026219E+03</pdfrwt>
<totfact> 0.20139620E+03</totfact>
</mgrwt>
</event>
<event>
10   0  0.3368750E-06  0.1780482E+03  0.7546771E-02  0.1193249E+00
       21   -1    0    0  503  502  0.00000000000E+00  0.00000000000E+00  0.34950767338E+02  0.34950767338E+02  0.00000000000E+00 0.  1.
        1   -1    0    0  502    0  0.00000000000E+00  0.00000000000E+00 -0.15928639495E+04  0.15928639495E+04  0.00000000000E+00 0. -1.
       23    2    1    2    0    0 -0.71976244943E+01  0.17780054900E+02 -0.44231323313E+03  0.45390664988E+03  0.10011151010E+03 0.  0.
       23    2    1    2    0    0  0.10913472513E-01 -0.29503636507E+02 -0.10916542995E+04  0.10959032776E+04  0.91784636147E+02 0.  0.
      -11    1    4    4    0    0 -0.42821017623E+01 -0.17015025587E+02 -0.34860210090E+02  0.39026679832E+02  0.00000000000E+00 0.  1.
       11    1    4    4    0    0  0.42930152348E+01 -0.12488610920E+02 -0.10567940894E+04  0.10568765977E+04  0.00000000000E+00 0. -1.
      -13    1    3    3    0    0  0.39771774854E+01  0.46197640947E+02 -0.39422469016E+03  0.39694224555E+03  0.00000000000E+00 0.  1.
       13    1    3    3    0    0 -0.11174801980E+02 -0.28417586047E+02 -0.48088542967E+02  0.56964404331E+02  0.00000000000E+00 0. -1.
       21    1    1    2  503  501 -0.20199505471E+02  0.21445460329E+02  0.11974449169E+02  0.31801182728E+02  0.00000000000E+00 0.  1.
        1    1    1    2  501    0  0.27386216492E+02 -0.97218787225E+01 -0.35920098699E+02  0.46203606680E+02  0.00000000000E+00 0. -1.
<mgrwt>
<rscale>  2 0.15603364E+03</rscale>
<asrwt>0</asrwt>
<pdfrwt beam="1">  1       21 0.53770411E-02 0.17804817E+03</pdfrwt>
<pdfrwt beam="2">  1        1 0.24505599E+00 0.17804817E+03</pdfrwt>
<totfact> 0.16876779E+04</totfact>
</mgrwt>
</event>
<event>
10   0  0.3368750E-06  0.9367527E+02  0.7546771E-02  0.1298967E+00
       21   -1    0    0  501  502  0.00000000000E+00  0.00000000000E+00  0.29240631279E+03  0.29240631279E+03  0.00000000000E+00 0.  1.
       -3   -1    0    0    0  501  0.00000000000E+00  0.00000000000E+00 -0.29949380350E+03  0.29949380350E+03  0.00000000000E+00 0.  1.
       23    2    1    2    0    0  0.76745339609E+01  0.20559413786E+02 -0.26685319664E+03  0.28025690774E+03  0.82775103822E+02 0.  0.
       23    2    1    2    0    0  0.12581380235E+02 -0.44188436850E+02  0.25129301332E+03  0.27117415661E+03  0.90974367750E+02 0.  0.
      -11    1    4    4    0    0 -0.29881547446E+02 -0.47058381877E+02  0.10583833737E+03  0.11962086708E+03  0.00000000000E+00 0. -1.
       11    1    4    4    0    0  0.42462927681E+02  0.28699450274E+01  0.14545467595E+03  0.15155328953E+03  0.00000000000E+00 0.  1.
      -13    1    3    3    0    0 -0.25098806337E+02  0.30848154197E+02 -0.21077798476E+03  0.21449689405E+03  0.00000000000E+00 0.  1.
       13    1    3    3    0    0  0.32773340297E+02 -0.10288740410E+02 -0.56075211881E+02  0.65760013693E+02  0.00000000000E+00 0. -1.
       21    1    1    2  503  502 -0.74486176536E+01  0.93633696402E+01  0.15909054808E+02  0.19906095068E+02  0.00000000000E+00 0. -1.
       -3    1    1    2    0  503 -0.12807296543E+02  0.14265653423E+02 -0.74363621937E+01  0.20562956864E+02  0.00000000000E+00 0.  1.
<mgrwt>
<rscale>  2 0.91623705E+02</rscale>
<asrwt>0</asrwt>
<pdfrwt beam="1">  1       21 0.44985587E-01 0.93675265E+02</pdfrwt>
<pdfrwt beam="2">  1       -3 0.46075970E-01 0.93675265E+02</pdfrwt>
<totfact> 0.11017292E+03</totfact>
</mgrwt>
</event>
<event>
10   0  0.3368750E-06  0.1215698E+03  0.7546771E-02  0.1241908E+00
       21   -1    0    0  503  502  0.00000000000E+00  0.00000000000E+00  0.13995382556E+03  0.13995382556E+03  0.00000000000E+00 0. -1.
       -2   -1    0    0    0  501  0.00000000000E+00  0.00000000000E+00 -0.31964514678E+03  0.31964514678E+03  0.00000000000E+00 0.  1.
       23    2    1    2    0    0  0.17867157551E+02 -0.81884509926E+02 -0.11785818979E+03  0.17333894529E+03  0.95559032902E+02 0.  0.
       23    2    1    2    0    0  0.13215858318E+02  0.68651968470E+02 -0.11607915507E+03  0.16337222027E+03  0.91259851123E+02 0.  0.
      -11    1    4    4    0    0  0.14032233422E+01 -0.22362989758E+02 -0.30808915571E+02  0.38095427879E+02  0.00000000000E+00 0.  1.
       11    1    4    4    0    0  0.11812634976E+02  0.91014958228E+02 -0.85270239500E+02  0.12527679239E+03  0.00000000000E+00 0. -1.
      -13    1    3    3    0    0 -0.43144500080E+00 -0.83068098100E+02 -0.12784220654E+03  0.15246024019E+03  0.00000000000E+00 0.  1.
       13    1    3    3    0    0  0.18298602551E+02  0.11835881734E+01  0.99840167465E+01  0.20878705101E+02  0.00000000000E+00 0. -1.
       21    1    1    2  503  501 -0.38316369463E+01  0.10549360063E+02 -0.31202040358E+02  0.33159278670E+02  0.00000000000E+00 0. -1.
       -2    1    1    2    0  502 -0.27251378923E+02  0.26831813940E+01  0.85448064003E+02  0.89728528113E+02  0.00000000000E+00 0.  1.
<mgrwt>
<rscale>  2 0.12072361E+03</rscale>
<asrwt>0</asrwt>
<pdfrwt beam="1">  1       21 0.21531358E-01 0.12156977E+03</pdfrwt>
<pdfrwt beam="2">  1       -2 0.49176176E-01 0.12156977E+03</pdfrwt>
<totfact> 0.65113024E+03</totfact>
</mgrwt>
</event>
<event>
10   0  0.3368750E-06  0.1188689E+03  0.7546771E-02  0.1245154E+00
        2   -1    0    0  502    0  0.00000000000E+00  0.00000000000E+00  0.43955045326E+03  0.43955045326E+03  0.00000000000E+00 0. -1.
       21   -1    0    0  503  502  0.00000000000E+00  0.00000000000E+00 -0.81925506440E+02  0.81925506440E+02  0.00000000000E+00 0. -1.
       23    2    1    2    0    0  0.38582263552E+02  0.33943258718E+01  0.41903964073E+01  0.98162067554E+02  0.90100608075E+02 0.  0.
       23    2    1    2    0    0 -0.87179967161E+02  0.10234097328E+02  0.31063460284E+03  0.33498598458E+03  0.89535858550E+02 0.  0.
      -11    1    3    3    0    0  0.42617879811E+02  0.41209838915E+02  0.84947049675E+01  0.59889018322E+02  0.00000000000E+00 0. -1.
       11    1    3    3    0    0 -0.40356162595E+01 -0.37815513044E+02 -0.43043085602E+01  0.38273049232E+02  0.00000000000E+00 0.  1.
      -13    1    4    4    0    0 -0.73959272575E+02 -0.32212731390E+02  0.21037110086E+03  0.22530786525E+03  0.00000000000E+00 0. -1.
       13    1    4    4    0    0 -0.13220694586E+02  0.42446828719E+02  0.10026350197E+03  0.10967811934E+03  0.00000000000E+00 0.  1.
       21    1    1    2  503  501 -0.46904999234E+01 -0.22442812730E+02  0.91185623004E+01  0.24674456654E+02  0.00000000000E+00 0. -1.
        2    1    1    2  501    0  0.53288203532E+02  0.88143895299E+01  0.33681385276E+02  0.63653450909E+02  0.00000000000E+00 0. -1.
<mgrwt>
<rscale>  2 0.11876187E+03</rscale>
<asrwt>0</asrwt>
<pdfrwt beam="1">  1       21 0.12603924E-01 0.11886889E+03</pdfrwt>
<pdfrwt beam="2">  1        2 0.67623147E-01 0.11886889E+03</pdfrwt>
<totfact> 0.48202165E+04</totfact>
</mgrwt>
</event>
<event>
10   0  0.3368750E-06  0.2350693E+03  0.7546771E-02  0.1131886E+00
        2   -1    0    0  503    0  0.00000000000E+00  0.00000000000E+00  0.67794753386E+03  0.67794753386E+03  0.00000000000E+00 0. -1.
       21   -1    0    0  501  502  0.00000000000E+00  0.00000000000E+00 -0.15899043435E+03  0.15899043435E+03  0.00000000000E+00 0. -1.
       23    2    1    2    0    0  0.14577869642E+02 -0.17660955245E+03  0.14667247046E+03  0.25118488801E+03  0.10088402289E+03 0.  0.
       23    2    1    2    0    0 -0.85408130620E+01  0.14494140922E+03  0.43263705434E+03  0.46515500973E+03  0.90074439708E+02 0.  0.
      -11    1    4    4    0    0  0.12256600479E+02  0.13488509063E+02  0.16751499701E+03  0.16850352624E+03  0.00000000000E+00 0. -1.
       11    1    4    4    0    0 -0.20797413541E+02  0.13145290016E+03  0.26512205733E+03  0.29665148349E+03  0.00000000000E+00 0.  1.
      -13    1    3    3    0    0 -0.20484027072E+02 -0.16239905679E+03  0.13317145825E+03  0.21101584372E+03  0.00000000000E+00 0. -1.
       13    1    3    3    0    0  0.35061896714E+02 -0.14210495660E+02  0.13501012213E+02  0.40169044286E+02  0.00000000000E+00 0.  1.
       21    1    1    2  503  502 -0.38605069016E+02  0.25663800519E+02 -0.71880237406E+02  0.85532160854E+02  0.00000000000E+00 0. -1.
        2    1    1    2  501    0  0.32568012435E+02  0.60043427022E+01  0.11527812119E+02  0.35065909621E+02  0.00000000000E+00 0. -1.
<mgrwt>
<rscale>  2 0.22270049E+03</rscale>
<asrwt>0</asrwt>
<pdfrwt beam="1">  1       21 0.24460067E-01 0.23506935E+03</pdfrwt>
<pdfrwt beam="2">  1        2 0.10429962E+00 0.23506935E+03</pdfrwt>
<totfact> 0.85795364E+03</totfact>
</mgrwt>
</event>
<event>
10   0  0.3368750E-06  0.1092481E+03  0.7546771E-02  0.1262109E+00
       -1   -1    0    0    0  501  0.00000000000E+00  0.00000000000E+00  0.34854131816E+03  0.34854131816E+03  0.00000000000E+00 0.  1.
        1   -1    0    0  502    0  0.00000000000E+00  0.00000000000E+00 -0.64344907272E+02  0.64344907272E+02  0.00000000000E+00 0. -1.
       23    2    1    2    0    0  0.32768637545E+02  0.51686023571E+02  0.20460253643E+02  0.11150286722E+03  0.90934255260E+02 0.  0.
       23    2    1    2    0    0 -0.53730987338E+02 -0.32544114197E+02  0.20578464123E+03  0.23344566804E+03  0.90572749718E+02 0.  0.
      -11    1    3    3    0    0 -0.27059435617E+02  0.34965535469E+02  0.21955124494E+02  0.49364250405E+02  0.00000000000E+00 0. -1.
       11    1    3    3    0    0  0.59828073162E+02  0.16720488101E+02 -0.14948708505E+01  0.62138616813E+02  0.00000000000E+00 0.  1.
      -13    1    4    4    0    0  0.81664883200E+01 -0.51882339186E+01 -0.58148304075E+01  0.11288115668E+02  0.00000000000E+00 0.  1.
       13    1    4    4    0    0 -0.61897475658E+02 -0.27355880278E+02  0.21159947164E+03  0.22215755237E+03  0.00000000000E+00 0. -1.
       21    1    1    2  502  503  0.82039196324E+01 -0.68001387397E+01  0.44135104047E+01  0.11533657629E+02  0.00000000000E+00 0.  1.
       21    1    1    2  503  501  0.12758430161E+02 -0.12341770634E+02  0.53538005615E+02  0.56404032549E+02  0.00000000000E+00 0.  1.
<mgrwt>
<rscale>  2 0.10917284E+03</rscale>
<asrwt>0</asrwt>
<pdfrwt beam="1">  1        1 0.98992165E-02 0.10924810E+03</pdfrwt>
<pdfrwt beam="2">  1       -1 0.53621741E-01 0.10924810E+03</pdfrwt>
<totfact> 0.22494095E+03</totfact>
</mgrwt>
</event>
<event>
10   0  0.3368750E-06  0.2138389E+03  0.7546771E-02  0.1161928E+00
       -4   -1    0    0    0  501  0.00000000000E+00  0.00000000000E+00  0.17192021726E+03  0.17192021726E+03  0.00000000000E+00 0.  1.
        4   -1    0    0  503    0  0.00000000000E+00  0.00000000000E+00 -0.60990287410E+03  0.60990287410E+03  0.00000000000E+00 0. -1.
       23    2    1    2    0    0 -0.14009957281E+03  0.10936568015E+03 -0.13678716914E+03  0.24322487438E+03  0.94121557459E+02 0.  0.
       23    2    1    2    0    0 -0.49579883395E+02 -0.64489087886E+02 -0.25848442671E+03  0.28593836659E+03  0.91266331928E+02 0.  0.
      -11    1    3    3    0    0  0.35774919815E+01  0.38153314237E+02 -0.42402962183E+02  0.57153171723E+02  0.00000000000E+00 0. -1.
       11    1    3    3    0    0 -0.14367706479E+03  0.71212365909E+02 -0.94384206961E+02  0.18607170265E+03  0.00000000000E+00 0.  1.
      -13    1    4    4    0    0 -0.68875775426E+02 -0.73661700911E+02 -0.21617968348E+03  0.23854470057E+03  0.00000000000E+00 0.  1.
       13    1    4    4    0    0  0.19295892032E+02  0.91726130243E+01 -0.42304743235E+02  0.47393666024E+02  0.00000000000E+00 0. -1.
       21    1    1    2  502  501 -0.19890804169E+02  0.14715947068E+01  0.20808627061E+02  0.28823751346E+02  0.00000000000E+00 0.  1.
       21    1    1    2  503  502  0.20957026037E+03 -0.46348186966E+02 -0.63519688049E+02  0.22383609905E+03  0.00000000000E+00 0. -1.
<mgrwt>
<rscale>  2 0.18620694E+03</rscale>
<asrwt>0</asrwt>
<pdfrwt beam="1">  1        4 0.93831211E-01 0.21383886E+03</pdfrwt>
<pdfrwt beam="2">  1       -4 0.26449264E-01 0.21383886E+03</pdfrwt>
<totfact> 0.23880153E+01</totfact>
</mgrwt>
</event>
<event>
10   0  0.3368750E-06  0.9218595E+02  0.7546771E-02  0.1298636E+00
       21   -1    0    0  501  502  0.00000000000E+00  0.00000000000E+00  0.12890806539E+02  0.12890806539E+02  0.00000000000E+00 0. -1.
        2   -1    0    0  503    0  0.00000000000E+00  0.00000000000E+00 -0.20864087147E+04  0.20864087147E+04  0.00000000000E+00 0. -1.
       23    2    1    2    0    0 -0.21887958663E+01  0.18151421212E+01 -0.76674911705E+03  0.77208796245E+03  0.90595406593E+02 0.  0.
       23    2    1    2    0    0 -0.24453219880E+02  0.25770884458E+02 -0.10897253925E+04  0.10939215985E+04  0.88887198700E+02 0.  0.
      -11    1    4    4    0    0 -0.31370189717E+02 -0.39419806108E+01 -0.13286577013E+03  0.13657576977E+03  0.00000000000E+00 0.  1.
       11    1    4    4    0    0  0.69169698371E+01  0.29712865069E+02 -0.95685962236E+03  0.95734582870E+03  0.00000000000E+00 0. -1.
      -13    1    3    3    0    0 -0.40665734370E+02 -0.20700674813E+02 -0.42526623488E+03  0.42770736540E+03  0.00000000000E+00 0.  1.
       13    1    3    3    0    0  0.38476938504E+02  0.22515816934E+02 -0.34148288217E+03  0.34438059705E+03  0.00000000000E+00 0. -1.
       21    1    1    2  503  502  0.62383044815E+01 -0.10943324605E+02 -0.20310991410E+03  0.20350014742E+03  0.00000000000E+00 0.  1.
        2    1    1    2  501    0  0.20403711265E+02 -0.16642701974E+02 -0.13933484536E+02  0.29789812918E+02  0.00000000000E+00 0. -1.
<mgrwt>
<rscale>  2 0.91763512E+02</rscale>
<asrwt>0</asrwt>
<pdfrwt beam="1">  1       21 0.19832010E-02 0.92185953E+02</pdfrwt>
<pdfrwt beam="2">  1        2 0.32098596E+00 0.92185953E+02</pdfrwt>
<totfact> 0.10982786E+05</totfact>
</mgrwt>
</event>
<event>
10   0  0.3368750E-06  0.1125568E+03  0.7546771E-02  0.1256564E+00
       -2   -1    0    0    0  501  0.00000000000E+00  0.00000000000E+00  0.26484579822E+02  0.26484579822E+02  0.00000000000E+00 0.  1.
       21   -1    0    0  501  502  0.00000000000E+00  0.00000000000E+00 -0.15746612106E+04  0.15746612106E+04  0.00000000000E+00 0. -1.
       23    2    1    2    0    0  0.57147808598E+02 -0.42579521747E+01 -0.14532876959E+03  0.17999833390E+03  0.89414466126E+02 0.  0.
       23    2    1    2    0    0 -0.10626644763E+03  0.50179443421E+02 -0.85747898796E+03  0.87028771711E+03  0.91213822020E+02 0.  0.
      -11    1    3    3    0    0  0.38226110336E+02  0.38182308309E+02 -0.48530385056E+02  0.72624530655E+02  0.00000000000E+00 0. -1.
       11    1    3    3    0    0  0.18921698262E+02 -0.42440260484E+02 -0.96798384537E+02  0.10737380325E+03  0.00000000000E+00 0.  1.
      -13    1    4    4    0    0 -0.35091335820E+01  0.16773754805E+02 -0.39431328913E+03  0.39468549866E+03  0.00000000000E+00 0. -1.
       13    1    4    4    0    0 -0.10275731404E+03  0.33405688616E+02 -0.46316569883E+03  0.47560221845E+03  0.00000000000E+00 0.  1.
       21    1    1    2  503  502  0.20184494307E+02 -0.62261923286E+00 -0.85113633085E+02  0.87476465419E+02  0.00000000000E+00 0.  1.
       -2    1    1    2    0  503  0.28934144722E+02 -0.45298872014E+02 -0.46025524017E+03  0.46338327402E+03  0.00000000000E+00 0.  1.
<mgrwt>
<rscale>  2 0.11219178E+03</rscale>
<asrwt>0</asrwt>
<pdfrwt beam="1">  1       21 0.24225557E+00 0.11255684E+03</pdfrwt>
<pdfrwt beam="2">  1       -2 0.40745507E-02 0.11255684E+03</pdfrwt>
<totfact> 0.16244869E+03</totfact>
</mgrwt>
</event>
<event>
10   0  0.3368750E-06  0.1376577E+03  0.7546771E-02  0.1223192E+00
       21   -1    0    0  503  502  0.00000000000E+00  0.00000000000E+00  0.42641036410E+02  0.42641036410E+02  0.00000000000E+00 0.  1.
       -1   -1    0    0    0  501  0.00000000000E+00  0.00000000000E+00 -0.58295468119E+03  0.58295468119E+03  0.00000000000E+00 0.  1.
       23    2    1    2    0    0 -0.40088391186E+02  0.61193703651E+02 -0.38559269346E+03  0.40349340083E+03  0.93666700573E+02 0.  0.
       23    2    1    2    0    0  0.42740124358E+02 -0.47298489173E+02 -0.16146338946E+03  0.19586883637E+03  0.90721053876E+02 0.  0.
      -11    1    4    4    0    0  0.15231928326E+00 -0.64802727151E+02 -0.92087346510E+02  0.11260326831E+03  0.00000000000E+00 0.  1.
       11    1    4    4    0    0  0.42587805075E+02  0.17504237978E+02 -0.69376042947E+02  0.83265568054E+02  0.00000000000E+00 0. -1.
      -13    1    3    3    0    0 -0.70640978552E+02  0.41354391009E+02 -0.24797854709E+03  0.26113922211E+03  0.00000000000E+00 0.  1.
       13    1    3    3    0    0  0.30552587366E+02  0.19839312642E+02 -0.13761414636E+03  0.14235417872E+03  0.00000000000E+00 0. -1.
       21    1    1    2  503  501 -0.10077666472E+02 -0.65292626661E+00  0.36589191922E+01  0.10741199369E+02  0.00000000000E+00 0.  1.
       -1    1    1    2    0  502  0.74259332990E+01 -0.13242288212E+02  0.30835189409E+01  0.15492281030E+02  0.00000000000E+00 0.  1.
<mgrwt>
<rscale>  2 0.13291577E+03</rscale>
<asrwt>0</asrwt>
<pdfrwt beam="1">  1       21 0.65601594E-02 0.13765771E+03</pdfrwt>
<pdfrwt beam="2">  1       -1 0.89685336E-01 0.13765771E+03</pdfrwt>
<totfact> 0.20264551E+04</totfact>
</mgrwt>
</event>
<event>
10   0  0.3368750E-06  0.2952018E+03  0.7546771E-02  0.1118813E+00
        2   -1    0    0  503    0  0.00000000000E+00  0.00000000000E+00  0.12099467967E+04  0.12099467967E+04  0.00000000000E+00 0. -1.
       21   -1    0    0  501  502  0.00000000000E+00  0.00000000000E+00 -0.13747362600E+03  0.13747362600E+03  0.00000000000E+00 0. -1.
       23    2    1    2    0    0 -0.90865225896E+02  0.40726630856E+02  0.76798893232E+03  0.78069662844E+03  0.98818407998E+02 0.  0.
       23    2    1    2    0    0  0.42608644833E+02  0.70587154657E+02  0.10701476474E+03  0.16301423561E+03  0.91232878519E+02 0.  0.
      -11    1    3    3    0    0 -0.88643560864E+02  0.13790391660E+02  0.72043240207E+03  0.72599635105E+03  0.00000000000E+00 0. -1.
       11    1    3    3    0    0 -0.22216650317E+01  0.26936239197E+02  0.47556530250E+02  0.54700277394E+02  0.00000000000E+00 0.  1.
      -13    1    4    4    0    0  0.29631991829E+02 -0.14244629473E+02  0.12047583377E+02  0.35015834615E+02  0.00000000000E+00 0.  1.
       13    1    4    4    0    0  0.12976653004E+02  0.84831784130E+02  0.94967181359E+02  0.12799840099E+03  0.00000000000E+00 0. -1.
       21    1    1    2  503  502  0.13622789966E+02 -0.46451391003E+01  0.26984805610E+03  0.27023162492E+03  0.00000000000E+00 0.  1.
        2    1    1    2  501    0  0.34633791097E+02 -0.10666864641E+03 -0.72378582409E+02  0.13347793378E+03  0.00000000000E+00 0. -1.
<mgrwt>
<rscale>  2 0.24147626E+03</rscale>
<asrwt>0</asrwt>
<pdfrwt beam="1">  1       21 0.21149789E-01 0.29520184E+03</pdfrwt>
<pdfrwt beam="2">  1        2 0.18614566E+00 0.29520184E+03</pdfrwt>
<totfact> 0.50578465E+03</totfact>
</mgrwt>
</event>
<event>
10   0  0.3368750E-06  0.1347363E+03  0.7546771E-02  0.1239879E+00
        1   -1    0    0  503    0  0.00000000000E+00  0.00000000000E+00  0.44969865340E+03  0.44969865340E+03  0.00000000000E+00 0. -1.
       -1   -1    0    0    0  501  0.00000000000E+00  0.00000000000E+00 -0.13568520109E+03  0.13568520109E+03  0.00000000000E+00 0.  1.
       23    2    1    2    0    0  0.24850186641E+01 -0.90026992266E+02  0.74897969957E+02  0.14881827797E+03  0.91794004711E+02 0.  0.
       23    2    1    2    0    0  0.45323867295E+01  0.14965808552E+02 -0.55344212039E+02  0.10700875174E+03  0.90240640442E+02 0.  0.
      -11    1    3    3    0    0 -0.23352776966E+01 -0.97455186799E+02  0.28472925084E+02  0.10155626233E+03  0.00000000000E+00 0.  1.
       11    1    3    3    0    0  0.48202963607E+01  0.74281945326E+01  0.46425044874E+02  0.47262015642E+02  0.00000000000E+00 0. -1.
      -13    1    4    4    0    0 -0.98627685575E+01  0.88753390907E+01 -0.78200967654E+02  0.79318580356E+02  0.00000000000E+00 0.  1.
       13    1    4    4    0    0  0.14395155287E+02  0.60904694611E+01  0.22856755615E+02  0.27690171383E+02  0.00000000000E+00 0. -1.
       21    1    1    2  502  501  0.32145621454E+01 -0.25091852548E+02  0.89763044675E+01  0.26842289693E+02  0.00000000000E+00 0.  1.
       21    1    1    2  503  502 -0.10231967539E+02  0.10015303626E+03  0.28548338992E+03  0.30271453509E+03  0.00000000000E+00 0. -1.
<mgrwt>
<rscale>  2 0.12197223E+03</rscale>
<asrwt>0</asrwt>
<pdfrwt beam="1">  1        1 0.69184408E-01 0.13473632E+03</pdfrwt>
<pdfrwt beam="2">  1       -1 0.20874646E-01 0.13473632E+03</pdfrwt>
<totfact> 0.97406677E+02</totfact>
</mgrwt>
</event>
<event>
10   0  0.3368750E-06  0.5673703E+03  0.7546771E-02  0.9975515E-01
        2   -1    0    0  503    0  0.00000000000E+00  0.00000000000E+00  0.75228196324E+02  0.75228196324E+02  0.00000000000E+00 0. -1.
       21   -1    0    0  501  502  0.00000000000E+00  0.00000000000E+00 -0.11758412316E+04  0.11758412316E+04  0.00000000000E+00 0. -1.
       23    2    1    2    0    0 -0.14858633129E+03  0.13529843007E+03 -0.16131652562E+03  0.27415006679E+03  0.93550385648E+02 0.  0.
       23    2    1    2    0    0  0.10346412126E+03 -0.47032944108E+02 -0.55339094187E+03  0.56988015065E+03  0.74866076032E+02 0.  0.
      -11    1    4    4    0    0  0.93983515069E+02 -0.65442688046E+02 -0.48944460196E+03  0.50266456500E+03  0.00000000000E+00 0.  1.
       11    1    4    4    0    0  0.94806061871E+01  0.18409743939E+02 -0.63946339913E+02  0.67215585647E+02  0.00000000000E+00 0. -1.
      -13    1    3    3    0    0 -0.52410137659E+02 -0.35880285910E+01 -0.43244996555E+02  0.68042826261E+02  0.00000000000E+00 0.  1.
       13    1    3    3    0    0 -0.96176193635E+02  0.13888645866E+03 -0.11807152906E+03  0.20610724053E+03  0.00000000000E+00 0. -1.
       21    1    1    2  503  502 -0.30331600817E+01  0.10641973162E+02 -0.10147061421E+03  0.10207221562E+03  0.00000000000E+00 0. -1.
        2    1    1    2  501    0  0.48155370119E+02 -0.98907459128E+02 -0.28443495356E+03  0.30496699485E+03  0.00000000000E+00 0. -1.
<mgrwt>
<rscale>  2 0.56737026E+03</rscale>
<asrwt>0</asrwt>
<pdfrwt beam="1">  1       21 0.18089865E+00 0.56737026E+03</pdfrwt>
<pdfrwt beam="2">  1        2 0.11573569E-01 0.56737026E+03</pdfrwt>
<totfact> 0.10274511E+03</totfact>
</mgrwt>
</event>
<event>
10   0  0.3368750E-06  0.9788982E+02  0.7546771E-02  0.1288178E+00
       21   -1    0    0  503  502  0.00000000000E+00  0.00000000000E+00  0.14061724678E+02  0.14061724678E+02  0.00000000000E+00 0. -1.
       -3   -1    0    0    0  501  0.00000000000E+00  0.00000000000E+00 -0.11774078556E+04  0.11774078556E+04  0.00000000000E+00 0.  1.
       23    2    1    2    0    0  0.20964455448E+02 -0.16585818714E+02 -0.32625274061E+03  0.33966068620E+03  0.90630752077E+02 0.  0.
       23    2    1    2    0    0 -0.19466682598E+02  0.37266340294E+02 -0.78723359069E+03  0.79282559442E+03  0.84071190156E+02 0.  0.
      -11    1    4    4    0    0  0.31603934237E+02  0.18431573652E+01 -0.24249165757E+03  0.24454940172E+03  0.00000000000E+00 0. -1.
       11    1    4    4    0    0 -0.51070616835E+02  0.35423182929E+02 -0.54474193311E+03  0.54827619270E+03  0.00000000000E+00 0.  1.
      -13    1    3    3    0    0  0.36492084221E+02  0.33949457832E+01 -0.30327064626E+03  0.30547713949E+03  0.00000000000E+00 0.  1.
       13    1    3    3    0    0 -0.15527628772E+02 -0.19980764497E+02 -0.22982094347E+02  0.34183546711E+02  0.00000000000E+00 0. -1.
       21    1    1    2  503  501 -0.11111062151E+02 -0.49893765490E+01 -0.27127365033E+02  0.29736232346E+02  0.00000000000E+00 0.  1.
       -3    1    1    2    0  502  0.96132893005E+01 -0.15691145031E+02 -0.22732434587E+02  0.29247067302E+02  0.00000000000E+00 0.  1.
<mgrwt>
<rscale>  2 0.96343651E+02</rscale>
<asrwt>0</asrwt>
<pdfrwt beam="1">  1       21 0.21633423E-02 0.97889818E+02</pdfrwt>
<pdfrwt beam="2">  1       -3 0.18113967E+00 0.97889818E+02</pdfrwt>
<totfact> 0.10812284E+04</totfact>
</mgrwt>
</event>
<event>
10   0  0.3368750E-06  0.1051820E+03  0.7546771E-02  0.1270405E+00
       21   -1    0    0  503  502  0.00000000000E+00  0.00000000000E+00  0.17500156953E+03  0.17500156953E+03  0.00000000000E+00 0.  1.
       -1   -1    0    0    0  501  0.00000000000E+00  0.00000000000E+00 -0.27333128010E+03  0.27333128010E+03  0.00000000000E+00 0.  1.
       23    2    1    2    0    0  0.62208756218E+02  0.52065907560E+02 -0.31344503013E+02  0.12652423883E+03  0.91897318042E+02 0.  0.
       23    2    1    2    0    0 -0.36684157341E+02 -0.22340216451E+02 -0.17472843766E+03  0.20136549801E+03  0.90405885800E+02 0.  0.
      -11    1    3    3    0    0  0.88525106891E+01 -0.26309136442E+02 -0.64770346196E+01  0.28504202906E+02  0.00000000000E+00 0. -1.
       11    1    3    3    0    0  0.53356245529E+02  0.78375044002E+02 -0.24867468393E+02  0.98020035929E+02  0.00000000000E+00 0.  1.
      -13    1    4    4    0    0  0.12548684704E+02 -0.10718025511E+02 -0.13767507579E+03  0.13866063628E+03  0.00000000000E+00 0.  1.
       13    1    4    4    0    0 -0.49232842045E+02 -0.11622190940E+02 -0.37053361871E+02  0.62704861726E+02  0.00000000000E+00 0. -1.
       21    1    1    2  503  501  0.86110439023E+01 -0.11033041952E+02  0.39173190245E+02  0.41598280322E+02  0.00000000000E+00 0.  1.
       -1    1    1    2    0  502 -0.34135642779E+02 -0.18692649157E+02  0.68570039865E+02  0.78844832472E+02  0.00000000000E+00 0.  1.
<mgrwt>
<rscale>  2 0.10485531E+03</rscale>
<asrwt>0</asrwt>
<pdfrwt beam="1">  1       21 0.26923318E-01 0.10518196E+03</pdfrwt>
<pdfrwt beam="2">  1       -1 0.42050966E-01 0.10518196E+03</pdfrwt>
<totfact> 0.69211323E+03</totfact>
</mgrwt>
</event>
<event>
10   0  0.3368750E-06  0.1109127E+03  0.7546771E-02  0.1258910E+00
       21   -1    0    0  501  502  0.00000000000E+00  0.00000000000E+00  0.37378302866E+02  0.37378302866E+02  0.00000000000E+00 0. -1.
        2   -1    0    0  503    0  0.00000000000E+00  0.00000000000E+00 -0.24502383281E+04  0.24502383281E+04  0.00000000000E+00 0. -1.
       23    2    1    2    0    0 -0.96934242627E+02  0.41151924395E+02 -0.44948820515E+03  0.47048293198E+03  0.90690762697E+02 0.  0.
       23    2    1    2    0    0  0.51957981678E+02 -0.25664815221E+02 -0.19630013203E+04  0.19659520718E+04  0.90747179626E+02 0.  0.
      -11    1    3    3    0    0 -0.72359627884E+01  0.43527392868E+02 -0.21348674568E+03  0.21799904511E+03  0.00000000000E+00 0.  1.
       11    1    3    3    0    0 -0.89698279839E+02 -0.23754684736E+01 -0.23600145947E+03  0.25248388687E+03  0.00000000000E+00 0. -1.
      -13    1    4    4    0    0 -0.18620044371E+02  0.67314460173E+01 -0.15168339195E+03  0.15297015987E+03  0.00000000000E+00 0.  1.
       13    1    4    4    0    0  0.70578026049E+02 -0.32396261239E+02 -0.18113179283E+04  0.18129819119E+04  0.00000000000E+00 0. -1.
       21    1    1    2  503  502  0.90206257249E+01 -0.98705412598E+01  0.52368427585E+01  0.14360494257E+02  0.00000000000E+00 0. -1.
        2    1    1    2  501    0  0.35955635225E+02 -0.56165679135E+01 -0.56073425647E+01  0.36821132929E+02  0.00000000000E+00 0. -1.
<mgrwt>
<rscale>  2 0.11090113E+03</rscale>
<asrwt>0</asrwt>
<pdfrwt beam="1">  1       21 0.57505081E-02 0.11091267E+03</pdfrwt>
<pdfrwt beam="2">  1        2 0.37695974E+00 0.11091267E+03</pdfrwt>
<totfact> 0.12356711E+04</totfact>
</mgrwt>
</event>
<event>
10   0  0.3368750E-06  0.2425264E+03  0.7546771E-02  0.1153872E+00
        4   -1    0    0  502    0  0.00000000000E+00  0.00000000000E+00  0.10270036796E+04  0.10270036796E+04  0.00000000000E+00 0. -1.
        3   -1    0    0  501    0  0.00000000000E+00  0.00000000000E+00 -0.91900032289E+03  0.91900032289E+03  0.00000000000E+00 0. -1.
       23    2    1    2    0    0 -0.31918969156E+01  0.41468217326E+02 -0.65684681212E+03  0.66467792174E+03  0.92839667241E+02 0.  0.
       23    2    1    2    0    0 -0.11136523860E+03 -0.32042153912E+03  0.69747210009E+03  0.78085124035E+03  0.90493922685E+02 0.  0.
      -11    1    4    4    0    0  0.38318095359E+01 -0.79155466348E+02  0.11177067953E+03  0.13701443508E+03  0.00000000000E+00 0.  1.
       11    1    4    4    0    0 -0.11519704813E+03 -0.24126607277E+03  0.58570142056E+03  0.64383680527E+03  0.00000000000E+00 0. -1.
      -13    1    3    3    0    0 -0.45573835906E+02  0.34103869941E+02 -0.31100664587E+03  0.31617270952E+03  0.00000000000E+00 0.  1.
       13    1    3    3    0    0  0.42381938990E+02  0.73643473850E+01 -0.34584016624E+03  0.34850521223E+03  0.00000000000E+00 0. -1.
        4    1    1    2  501    0  0.10470291842E+03  0.12215907697E+03  0.22586960917E+03  0.27731321922E+03  0.00000000000E+00 0. -1.
        3    1    1    2  502    0  0.98542170951E+01  0.15679424483E+03 -0.15849154039E+03  0.22316162121E+03  0.00000000000E+00 0. -1.
<mgrwt>
<rscale>  2 0.19517834E+03</rscale>
<asrwt>0</asrwt>
<pdfrwt beam="1">  1        4 0.15800057E+00 0.24252642E+03</pdfrwt>
<pdfrwt beam="2">  1        3 0.14138467E+00 0.24252642E+03</pdfrwt>
<totfact> 0.22877401E-01</totfact>
</mgrwt>
</event>
<event>
10   0  0.3368750E-06  0.1288995E+03  0.7546771E-02  0.1233237E+00
       -2   -1    0    0    0  501  0.00000000000E+00  0.00000000000E+00  0.12804607639E+03  0.12804607639E+03  0.00000000000E+00 0.  1.
        2   -1    0    0  501    0  0.00000000000E+00  0.00000000000E+00 -0.89333512261E+03  0.89333512261E+03  0.00000000000E+00 0.  1.
       23    2    1    2    0    0  0.13417552799E+02 -0.51273773936E+02 -0.65617120920E+01  0.11541924307E+03  0.10232064791E+03 0.  0.
       23    2    1    2    0    0 -0.78584522561E+02  0.96914052888E+02 -0.41875927030E+02  0.15869807912E+03  0.88677089598E+02 0.  0.
      -11    1    3    3    0    0  0.36439507583E+02 -0.70439296603E+02  0.11955355383E+02  0.80202635500E+02  0.00000000000E+00 0.  1.
       11    1    3    3    0    0 -0.23021954784E+02  0.19165522668E+02 -0.18517067475E+02  0.35216607575E+02  0.00000000000E+00 0. -1.
      -13    1    4    4    0    0 -0.97429419447E+02  0.69061972213E+02 -0.33767068529E+02  0.12410585279E+03  0.00000000000E+00 0.  1.
       13    1    4    4    0    0  0.18844896885E+02  0.27852080674E+02 -0.81088585003E+01  0.34592226333E+02  0.00000000000E+00 0. -1.
        2    1    1    2  502    0  0.17580878179E+02 -0.25264610594E+02 -0.68663651589E+03  0.68732604547E+03  0.00000000000E+00 0.  1.
       -2    1    1    2    0  502  0.47586091584E+02 -0.20375668358E+02 -0.30214891204E+02  0.59937831323E+02  0.00000000000E+00 0.  1.
<mgrwt>
<rscale>  2 0.12617983E+03</rscale>
<asrwt>0</asrwt>
<pdfrwt beam="1">  1        2 0.13743617E+00 0.12889947E+03</pdfrwt>
<pdfrwt beam="2">  1       -2 0.19699396E-01 0.12889947E+03</pdfrwt>
<totfact> 0.67046307E+02</totfact>
</mgrwt>
</event>
<event>
10   0  0.3368750E-06  0.1333411E+03  0.7546771E-02  0.1235345E+00
        1   -1    0    0  502    0  0.00000000000E+00  0.00000000000E+00  0.87795646937E+03  0.87795646937E+03  0.00000000000E+00 0. -1.
       21   -1    0    0  503  502  0.00000000000E+00  0.00000000000E+00 -0.23677657054E+02  0.23677657054E+02  0.00000000000E+00 0.  1.
       23    2    1    2    0    0 -0.10408837479E+02 -0.10379408054E+02  0.51856049178E+03  0.52841129127E+03  0.10048598459E+03 0.  0.
       23    2    1    2    0    0  0.16562580232E+02 -0.72835801260E+01  0.20542292858E+03  0.22564120808E+03  0.91586055673E+02 0.  0.
      -11    1    4    4    0    0  0.46281375245E+02  0.14342715479E+02  0.16019357483E+03  0.16736086938E+03  0.00000000000E+00 0. -1.
       11    1    4    4    0    0 -0.29718795013E+02 -0.21626295605E+02  0.45229353751E+02  0.58280338703E+02  0.00000000000E+00 0.  1.
      -13    1    3    3    0    0  0.42278497444E+02  0.12508728101E+02  0.23054996949E+03  0.23472798737E+03  0.00000000000E+00 0.  1.
       13    1    3    3    0    0 -0.52687334923E+02 -0.22888136156E+02  0.28801052229E+03  0.29368330390E+03  0.00000000000E+00 0. -1.
       21    1    1    2  503  501 -0.89193743709E+00 -0.25636132999E+02  0.45921735390E+02  0.52600500461E+02  0.00000000000E+00 0.  1.
        1    1    1    2  501    0 -0.52618053158E+01  0.43299121179E+02  0.84373656563E+02  0.94981126608E+02  0.00000000000E+00 0. -1.
<mgrwt>
<rscale>  2 0.12482352E+03</rscale>
<asrwt>0</asrwt>
<pdfrwt beam="1">  1       21 0.36427165E-02 0.13334105E+03</pdfrwt>
<pdfrwt beam="2">  1        1 0.13507023E+00 0.13334105E+03</pdfrwt>
<totfact> 0.10174449E+05</totfact>
</mgrwt>
</event>
<event>
10   0  0.3368750E-06  0.2491650E+03  0.7546771E-02  0.1118914E+00
       21   -1    0    0  501  502  0.00000000000E+00  0.00000000000E+00  0.30641736336E+03  0.30641736336E+03  0.00000000000E+00 0. -1.
        4   -1    0    0  503    0  0.00000000000E+00  0.00000000000E+00 -0.32466812314E+03  0.32466812314E+03  0.00000000000E+00 0. -1.
       23    2    1    2    0    0 -0.19426351126E+03 -0.45910764441E+02  0.13532174449E+02  0.22071675410E+03  0.93202230107E+02 0.  0.
       23    2    1    2    0    0  0.11179369183E+03  0.39129139152E+02  0.10508587791E+03  0.18312066638E+03  0.91984877321E+02 0.  0.
      -11    1    3    3    0    0  0.46697549913E+01 -0.16984337918E+02  0.86698215932E+01  0.19632629794E+02  0.00000000000E+00 0.  1.
       11    1    3    3    0    0 -0.19893326625E+03 -0.28926426523E+02  0.48623528555E+01  0.20108412431E+03  0.00000000000E+00 0. -1.
      -13    1    4    4    0    0  0.38751862447E+02  0.62054511945E+02  0.46056984933E+02  0.86450651570E+02  0.00000000000E+00 0.  1.
       13    1    4    4    0    0  0.73041829381E+02 -0.22925372793E+02  0.59028892979E+02  0.96670014810E+02  0.00000000000E+00 0. -1.
       21    1    1    2  503  502 -0.29234778729E+01  0.25378387362E+02 -0.13749795418E+03  0.13985098023E+03  0.00000000000E+00 0. -1.
        4    1    1    2  501    0  0.85393297306E+02 -0.18596762073E+02  0.62914203719E+00  0.87397085787E+02  0.00000000000E+00 0. -1.
<mgrwt>
<rscale>  2 0.24132343E+03</rscale>
<asrwt>0</asrwt>
<pdfrwt beam="1">  1       21 0.47141133E-01 0.24916501E+03</pdfrwt>
<pdfrwt beam="2">  1        4 0.49948942E-01 0.24916501E+03</pdfrwt>
<totfact> 0.70205178E+02</totfact>
</mgrwt>
</event>
<event>
10   0  0.3368750E-06  0.9425677E+02  0.7546771E-02  0.1293103E+00
       21   -1    0    0  503  502  0.00000000000E+00  0.00000000000E+00  0.25449557801E+02  0.25449557801E+02  0.00000000000E+00 0.  1.
        1   -1    0    0  502    0  0.00000000000E+00  0.00000000000E+00 -0.89076907466E+03  0.89076907466E+03  0.00000000000E+00 0. -1.
       23    2    1    2    0    0  0.10757550486E+02  0.74372092874E+01 -0.41301633662E+03  0.42290672683E+03  0.89980933029E+02 0.  0.
       23    2    1    2    0    0 -0.48219132108E+02  0.32953475177E+02 -0.40846249627E+03  0.42221867338E+03  0.89532011384E+02 0.  0.
      -11    1    3    3    0    0 -0.95907307605E+01 -0.38290234725E+02 -0.21960455061E+03  0.22312391813E+03  0.00000000000E+00 0.  1.
       11    1    3    3    0    0  0.20348281246E+02  0.45727444012E+02 -0.19341178600E+03  0.19978280870E+03  0.00000000000E+00 0. -1.
      -13    1    4    4    0    0  0.23654127163E+02  0.20724591342E+02 -0.16909298467E+03  0.17199262741E+03  0.00000000000E+00 0. -1.
       13    1    4    4    0    0 -0.71873259271E+02  0.12228883836E+02 -0.23936951160E+03  0.25022604597E+03  0.00000000000E+00 0.  1.
       21    1    1    2  503  501  0.56818792268E+01 -0.10550346536E+02 -0.13082073078E+02  0.17740749691E+02  0.00000000000E+00 0. -1.
        1    1    1    2  501    0  0.31779702396E+02 -0.29840337928E+02 -0.30758610902E+02  0.53352482573E+02  0.00000000000E+00 0. -1.
<mgrwt>
<rscale>  2 0.94149471E+02</rscale>
<asrwt>0</asrwt>
<pdfrwt beam="1">  1       21 0.39153166E-02 0.94256770E+02</pdfrwt>
<pdfrwt beam="2">  1        1 0.13704140E+00 0.94256770E+02</pdfrwt>
<totfact> 0.87725563E+04</totfact>
</mgrwt>
</event>
<event>
10   0  0.3368750E-06  0.1112468E+03  0.7546771E-02  0.1264445E+00
        1   -1    0    0  502    0  0.00000000000E+00  0.00000000000E+00  0.17197056465E+04  0.17197056465E+04  0.00000000000E+00 0. -1.
       -1   -1    0    0    0  501  0.00000000000E+00  0.00000000000E+00 -0.26041644753E+02  0.26041644753E+02  0.00000000000E+00 0.  1.
       23    2    1    2    0    0 -0.28607885745E+02 -0.31290924669E+02  0.13045558874E+03  0.17219649772E+03  0.10409342007E+03 0.  0.
       23    2    1    2    0    0 -0.21438445005E+02  0.43904666958E+02  0.82362135705E+03  0.83000967231E+03  0.90425049759E+02 0.  0.
      -11    1    4    4    0    0 -0.29213878043E+02  0.36790437833E+00  0.65605871035E+03  0.65670892901E+03  0.00000000000E+00 0. -1.
       11    1    4    4    0    0  0.77754330380E+01  0.43536762580E+02  0.16756264671E+03  0.17330074329E+03  0.00000000000E+00 0.  1.
      -13    1    3    3    0    0 -0.14458037454E+02  0.35371637049E+02  0.21957502694E+02  0.44071753756E+02  0.00000000000E+00 0. -1.
       13    1    3    3    0    0 -0.14149848291E+02 -0.66662561718E+02  0.10849808604E+03  0.12812474397E+03  0.00000000000E+00 0.  1.
       21    1    1    2  502  503  0.11085798678E+02 -0.14858020095E+02  0.53168553066E+03  0.53200860821E+03  0.00000000000E+00 0. -1.
       21    1    1    2  503  501  0.38960532072E+02  0.22442778059E+01  0.20790152529E+03  0.21153251301E+03  0.00000000000E+00 0.  1.
<mgrwt>
<rscale>  2 0.10793390E+03</rscale>
<asrwt>0</asrwt>
<pdfrwt beam="1">  1        1 0.26457010E+00 0.11124683E+03</pdfrwt>
<pdfrwt beam="2">  1       -1 0.40064069E-02 0.11124683E+03</pdfrwt>
<totfact> 0.12720498E+03</totfact>
</mgrwt>
</event>
<event>
10   0  0.3368750E-06  0.2041826E+03  0.7546771E-02  0.1156636E+00
        1   -1    0    0  503    0  0.00000000000E+00  0.00000000000E+00  0.36015508547E+03  0.36015508547E+03  0.00000000000E+00 0. -1.
       21   -1    0    0  501  502  0.00000000000E+00  0.00000000000E+00 -0.16350719977E+03  0.16350719977E+03  0.00000000000E+00 0. -1.
       23    2    1    2    0    0  0.11995103681E+03  0.54362040757E+02  0.24432634497E+03  0.29237098686E+03  0.91880076223E+02 0.  0.
       23    2    1    2    0    0 -0.11868608269E+03 -0.29091246348E+02 -0.55234908541E+02  0.16021531546E+03  0.87666215532E+02 0.  0.
      -11    1    3    3    0    0  0.69800176037E+02  0.77185941513E+02  0.17751049826E+03  0.20576615644E+03  0.00000000000E+00 0. -1.
       11    1    3    3    0    0  0.50150860770E+02 -0.22823900756E+02  0.66815846707E+02  0.86604830425E+02  0.00000000000E+00 0.  1.
      -13    1    4    4    0    0 -0.46431355781E+02 -0.51770384196E+02 -0.47228438819E+02  0.84062886655E+02  0.00000000000E+00 0.  1.
       13    1    4    4    0    0 -0.72254726913E+02  0.22679137849E+02 -0.80064697221E+01  0.76152428801E+02  0.00000000000E+00 0. -1.
       21    1    1    2  503  502 -0.15501647719E+02  0.18421516691E+02 -0.19319274459E+01  0.24153378705E+02  0.00000000000E+00 0. -1.
        1    1    1    2  501    0  0.14236693607E+02 -0.43692311100E+02  0.94883767187E+01  0.46922604220E+02  0.00000000000E+00 0. -1.
<mgrwt>
<rscale>  2 0.19203811E+03</rscale>
<asrwt>0</asrwt>
<pdfrwt beam="1">  1       21 0.25154954E-01 0.20418261E+03</pdfrwt>
<pdfrwt beam="2">  1        1 0.55408475E-01 0.20418261E+03</pdfrwt>
<totfact> 0.11368753E+04</totfact>
</mgrwt>
</event>
<event>
10   0  0.3368750E-06  0.1233168E+03  0.7546771E-02  0.1238774E+00
       21   -1    0    0  501  502  0.00000000000E+00  0.00000000000E+00  0.70235233100E+03  0.70235233100E+03  0.00000000000E+00 0.  1.
        3   -1    0    0  503    0  0.00000000000E+00  0.00000000000E+00 -0.85898298499E+02  0.85898298499E+02  0.00000000000E+00 0. -1.
       23    2    1    2    0    0  0.86077026756E+02 -0.31677673217E+01 -0.53561467173E+01  0.12829757519E+03  0.94933082790E+02 0.  0.
       23    2    1    2    0    0 -0.48615924330E+02  0.26670716950E+02  0.22217681730E+03  0.24660269930E+03  0.91517855720E+02 0.  0.
      -11    1    3    3    0    0  0.35823084365E+02  0.33400303639E+02  0.29364285179E+02  0.57106347288E+02  0.00000000000E+00 0.  1.
       11    1    3    3    0    0  0.50253942391E+02 -0.36568070961E+02 -0.34720431896E+02  0.71191227905E+02  0.00000000000E+00 0. -1.
      -13    1    4    4    0    0 -0.41862561271E+02  0.10366323950E+02  0.22467708116E+03  0.22877876979E+03  0.00000000000E+00 0.  1.
       13    1    4    4    0    0 -0.67533630587E+01  0.16304393001E+02 -0.25002638619E+01  0.17823929508E+02  0.00000000000E+00 0. -1.
       21    1    1    2  503  502 -0.32029104205E+02  0.47642763599E+01  0.35380236450E+02  0.47961682379E+02  0.00000000000E+00 0.  1.
        3    1    1    2  501    0 -0.54319982203E+01 -0.28267225989E+02  0.36425312547E+03  0.36538867263E+03  0.00000000000E+00 0. -1.
<mgrwt>
<rscale>  2 0.12265914E+03</rscale>
<asrwt>0</asrwt>
<pdfrwt beam="1">  1       21 0.10805420E+00 0.12331675E+03</pdfrwt>
<pdfrwt beam="2">  1        3 0.13215123E-01 0.12331675E+03</pdfrwt>
<totfact> 0.15570961E+03</totfact>
</mgrwt>
</event>
<event>
10   0  0.3368750E-06  0.1958251E+03  0.7546771E-02  0.1158898E+00
        1   -1    0    0  502    0  0.00000000000E+00  0.00000000000E+00  0.50494934456E+03  0.50494934456E+03  0.00000000000E+00 0. -1.
       -1   -1    0    0    0  501  0.00000000000E+00  0.00000000000E+00 -0.36535263093E+03  0.36535263093E+03  0.00000000000E+00 0.  1.
       23    2    1    2    0    0 -0.82458841606E+02  0.57723395045E+02 -0.56262760966E+02  0.14458543507E+03  0.87223843466E+02 0.  0.
       23    2    1    2    0    0  0.13003878042E+03 -0.57667659619E+02  0.82175810170E+02  0.18699642832E+03  0.89326127453E+02 0.  0.
      -11    1    3    3    0    0 -0.64449362575E+02  0.65825082713E+02 -0.73905388119E+02  0.11810448020E+03  0.00000000000E+00 0.  1.
       11    1    3    3    0    0 -0.18009479031E+02 -0.81016876681E+01  0.17642627153E+02  0.26480954871E+02  0.00000000000E+00 0. -1.
      -13    1    4    4    0    0  0.28662807891E+02  0.23736138265E+02  0.11164366599E+02  0.38853621421E+02  0.00000000000E+00 0.  1.
       13    1    4    4    0    0  0.10137597253E+03 -0.81403797884E+02  0.71011443571E+02  0.14814280690E+03  0.00000000000E+00 0. -1.
       21    1    1    2  502  503  0.12527179901E+02 -0.22947587309E+03  0.18060995279E+03  0.29229447756E+03  0.00000000000E+00 0. -1.
       21    1    1    2  503  501 -0.60107118718E+02  0.22942013766E+03 -0.66926288372E+02  0.24642563454E+03  0.00000000000E+00 0.  1.
<mgrwt>
<rscale>  2 0.18951695E+03</rscale>
<asrwt>0</asrwt>
<pdfrwt beam="1">  1        1 0.77684515E-01 0.19582511E+03</pdfrwt>
<pdfrwt beam="2">  1       -1 0.56208097E-01 0.19582511E+03</pdfrwt>
<totfact> 0.15039110E+02</totfact>
</mgrwt>
</event>
<event>
10   0  0.3368750E-06  0.9342702E+02  0.7546771E-02  0.1294790E+00
       -1   -1    0    0    0  501  0.00000000000E+00  0.00000000000E+00  0.17209731219E+03  0.17209731219E+03  0.00000000000E+00 0.  1.
        1   -1    0    0  503    0  0.00000000000E+00  0.00000000000E+00 -0.11086038014E+03  0.11086038014E+03  0.00000000000E+00 0. -1.
       23    2    1    2    0    0 -0.11606050313E+02  0.13763075450E+02 -0.93858539096E+01  0.94218711840E+02  0.92005156146E+02 0.  0.
       23    2    1    2    0    0 -0.43925479428E+01  0.27713419512E+02  0.96788475366E+02  0.13641938198E+03  0.91950588451E+02 0.  0.
      -11    1    4    4    0    0  0.21108199112E+02  0.50579772369E+02  0.83073271794E+02  0.99524057037E+02  0.00000000000E+00 0.  1.
       11    1    4    4    0    0 -0.25500747055E+02 -0.22866352857E+02  0.13715203572E+02  0.36895324939E+02  0.00000000000E+00 0. -1.
      -13    1    3    3    0    0 -0.13902265628E+02  0.44447806952E+02 -0.31589091842E+02  0.56273894977E+02  0.00000000000E+00 0.  1.
       13    1    3    3    0    0  0.22962153153E+01 -0.30684731502E+02  0.22203237932E+02  0.37944816863E+02  0.00000000000E+00 0. -1.
       21    1    1    2  502  501  0.74172242980E+01 -0.26403984214E+02 -0.12046314484E+02  0.29954954370E+02  0.00000000000E+00 0.  1.
       21    1    1    2  503  502  0.85813739580E+01 -0.15072510749E+02 -0.14119374928E+02  0.22364644143E+02  0.00000000000E+00 0. -1.
<mgrwt>
<rscale>  2 0.93413583E+02</rscale>
<asrwt>0</asrwt>
<pdfrwt beam="1">  1        1 0.17055443E-01 0.93427020E+02</pdfrwt>
<pdfrwt beam="2">  1       -1 0.26476510E-01 0.93427020E+02</pdfrwt>
<totfact> 0.37323907E+03</totfact>
</mgrwt>
</event>
<event>
10   0  0.3368750E-06  0.1292803E+03  0.7546771E-02  0.1229948E+00
        1   -1    0    0  503    0  0.00000000000E+00  0.00000000000E+00  0.17806076577E+04  0.17806076577E+04  0.00000000000E+00 0. -1.
       -1   -1    0    0    0  501  0.00000000000E+00  0.00000000000E+00 -0.22690618726E+02  0.22690618726E+02  0.00000000000E+00 0.  1.
       23    2    1    2    0    0  0.33479692825E+02  0.74793027173E+02  0.10335747130E+04  0.10406160718E+04  0.88826993043E+02 0.  0.
       23    2    1    2    0    0 -0.61617591370E+02 -0.72669124471E+02  0.22739106891E+03  0.26387139763E+03  0.94041943042E+02 0.  0.
      -11    1    3    3    0    0  0.35898496435E+02  0.58052570136E+02  0.33734050430E+03  0.34417643555E+03  0.00000000000E+00 0.  1.
       11    1    3    3    0    0 -0.24188036100E+01  0.16740457037E+02  0.69623420870E+03  0.69643963621E+03  0.00000000000E+00 0. -1.
      -13    1    4    4    0    0 -0.61774779371E+02 -0.70909159116E+02  0.10302703019E+03  0.13949480694E+03  0.00000000000E+00 0.  1.
       13    1    4    4    0    0  0.15718800095E+00 -0.17599653543E+01  0.12436403872E+03  0.12437659070E+03  0.00000000000E+00 0. -1.
       21    1    1    2  502  501  0.13589079690E+02 -0.32245882381E+01  0.59534441231E+02  0.61150721573E+02  0.00000000000E+00 0.  1.
       21    1    1    2  503  502  0.14548818855E+02  0.11006855357E+01  0.43741681587E+03  0.43766008550E+03  0.00000000000E+00 0. -1.
<mgrwt>
<rscale>  2 0.12833431E+03</rscale>
<asrwt>0</asrwt>
<pdfrwt beam="1">  1        1 0.27393964E+00 0.12928026E+03</pdfrwt>
<pdfrwt beam="2">  1       -1 0.34908644E-02 0.12928026E+03</pdfrwt>
<totfact> 0.14217592E+03</totfact>
</mgrwt>
</event>
<event>
10   0  0.3368750E-06  0.1686444E+03  0.7546771E-02  0.1206492E+00
       -1   -1    0    0    0  501  0.00000000000E+00  0.00000000000E+00  0.74633632099E+03  0.74633632099E+03  0.00000000000E+00 0.  1.
       21   -1    0    0  503  502  0.00000000000E+00  0.00000000000E+00 -0.11080051409E+03  0.11080051409E+03  0.00000000000E+00 0.  1.
       23    2    1    2    0    0  0.99680713819E+01 -0.11713389319E+02  0.20295955990E+03  0.22286022542E+03  0.90760846086E+02 0.  0.
       23    2    1    2    0    0 -0.50143872184E+02  0.14791066740E+03  0.39290840804E+03  0.43203894143E+03  0.88818108257E+02 0.  0.
      -11    1    3    3    0    0  0.32021374201E+02 -0.21575334214E+02  0.19284141745E+03  0.19666894960E+03  0.00000000000E+00 0. -1.
       11    1    3    3    0    0 -0.22053302819E+02  0.98619448948E+01  0.10118142446E+02  0.26191275816E+02  0.00000000000E+00 0.  1.
      -13    1    4    4    0    0  0.11004596026E+02  0.10334267520E+03  0.23348568673E+03  0.25557068603E+03  0.00000000000E+00 0.  1.
       13    1    4    4    0    0 -0.61148468210E+02  0.44567992204E+02  0.15942272131E+03  0.17646825540E+03  0.00000000000E+00 0. -1.
       21    1    1    2  503  501  0.11987782433E+01 -0.14091614465E+03  0.65335385804E+02  0.15533032393E+03  0.00000000000E+00 0.  1.
       -1    1    1    2    0  502  0.38977022559E+02  0.47188665717E+01 -0.25667546847E+02  0.46907344312E+02  0.00000000000E+00 0.  1.
<mgrwt>
<rscale>  2 0.14520509E+03</rscale>
<asrwt>0</asrwt>
<pdfrwt beam="1">  1       21 0.17046233E-01 0.16864441E+03</pdfrwt>
<pdfrwt beam="2">  1       -1 0.11482097E+00 0.16864441E+03</pdfrwt>
<totfact> 0.21611081E+03</totfact>
</mgrwt>
</event>
<event>
10   0  0.3368750E-06  0.1148192E+03  0.7546771E-02  0.1252294E+00
       -1   -1    0    0    0  501  0.00000000000E+00  0.00000000000E+00  0.26750608496E+02  0.26750608496E+02  0.00000000000E+00 0.  1.
       21   -1    0    0  501  502  0.00000000000E+00  0.00000000000E+00 -0.92360790452E+03  0.92360790452E+03  0.00000000000E+00 0.  1.
       23    2    1    2    0    0  0.55011108144E+02  0.80615170373E+02 -0.52239041506E+03  0.53899258264E+03  0.89979056887E+02 0.  0.
       23    2    1    2    0    0 -0.10741712267E+02 -0.60165753144E+02 -0.19255571830E+03  0.22162164247E+03  0.91121597469E+02 0.  0.
      -11    1    3    3    0    0  0.20309443150E+02  0.83689350745E+02 -0.45554610558E+03  0.46361474870E+03  0.00000000000E+00 0.  1.
       11    1    3    3    0    0  0.34701664994E+02 -0.30741803714E+01 -0.66844309482E+02  0.75377833933E+02  0.00000000000E+00 0. -1.
      -13    1    4    4    0    0  0.21997735213E+02 -0.14266664141E+02 -0.14648494558E+03  0.14881289374E+03  0.00000000000E+00 0.  1.
       13    1    4    4    0    0 -0.32739447480E+02 -0.45899089004E+02 -0.46070772721E+02  0.72808748731E+02  0.00000000000E+00 0. -1.
       21    1    1    2  503  502 -0.95461102913E+01 -0.13476017268E+02 -0.84400635620E+02  0.86001154388E+02  0.00000000000E+00 0.  1.
       -1    1    1    2    0  503 -0.34723285586E+02 -0.69733999610E+01 -0.97510527043E+02  0.10374313352E+03  0.00000000000E+00 0.  1.
<mgrwt>
<rscale>  2 0.11459241E+03</rscale>
<asrwt>0</asrwt>
<pdfrwt beam="1">  1       21 0.14209352E+00 0.11481923E+03</pdfrwt>
<pdfrwt beam="2">  1       -1 0.41154782E-02 0.11481923E+03</pdfrwt>
<totfact> 0.72932533E+03</totfact>
</mgrwt>
</event>
<event>
10   0  0.3368750E-06  0.3232259E+03  0.7546771E-02  0.1115142E+00
        2   -1    0    0  503    0  0.00000000000E+00  0.00000000000E+00  0.22509044404E+03  0.22509044404E+03  0.00000000000E+00 0. -1.
       21   -1    0    0  501  502  0.00000000000E+00  0.00000000000E+00 -0.16650172678E+04  0.16650172678E+04  0.00000000000E+00 0. -1.
       23    2    1    2    0    0  0.22958978510E+02 -0.59054154615E+02  0.84898313404E+02  0.13929044260E+03  0.90441118458E+02 0.  0.
       23    2    1    2    0    0 -0.35297968458E+02  0.14240846751E+03  0.15258522951E+01  0.17317030117E+03  0.91975577120E+02 0.  0.
      -11    1    4    4    0    0  0.20587429985E+02  0.63895207105E+01  0.13818821059E+02  0.25605235085E+02  0.00000000000E+00 0.  1.
       11    1    4    4    0    0 -0.55885398444E+02  0.13601894680E+03 -0.12292968764E+02  0.14756506609E+03  0.00000000000E+00 0. -1.
      -13    1    3    3    0    0  0.19558245854E+02 -0.83085308985E+02  0.72732328891E+02  0.11214136265E+03  0.00000000000E+00 0. -1.
       13    1    3    3    0    0  0.34007326568E+01  0.24031154370E+02  0.12165984512E+02  0.27149079950E+02  0.00000000000E+00 0.  1.
       21    1    1    2  503  502  0.37829298836E+02 -0.20713019269E+03 -0.13122253273E+04  0.13290106404E+04  0.00000000000E+00 0. -1.
        2    1    1    2  501    0 -0.25490308888E+02  0.12377587979E+03 -0.21412566217E+03  0.24863632772E+03  0.00000000000E+00 0. -1.
<mgrwt>
<rscale>  2 0.24711457E+03</rscale>
<asrwt>0</asrwt>
<pdfrwt beam="1">  1       21 0.25615650E+00 0.32322591E+03</pdfrwt>
<pdfrwt beam="2">  1        2 0.34629299E-01 0.32322591E+03</pdfrwt>
<totfact> 0.10181142E+02</totfact>
</mgrwt>
</event>
<event>
10   0  0.3368750E-06  0.1001289E+03  0.7546771E-02  0.1280154E+00
       21   -1    0    0  501  502  0.00000000000E+00  0.00000000000E+00  0.15547486458E+02  0.15547486458E+02  0.00000000000E+00 0.  1.
        2   -1    0    0  503    0  0.00000000000E+00  0.00000000000E+00 -0.13515801639E+04  0.13515801639E+04  0.00000000000E+00 0. -1.
       23    2    1    2    0    0  0.63424020844E+01  0.36619451936E+02 -0.41617887806E+03  0.42731561996E+03  0.89512961043E+02 0.  0.
       23    2    1    2    0    0 -0.26665535063E+02 -0.44327845913E+02 -0.37398127872E+03  0.38807176675E+03  0.89786917930E+02 0.  0.
      -11    1    4    4    0    0 -0.44871477872E+02 -0.56659056968E+02 -0.33999657168E+03  0.34759368093E+03  0.00000000000E+00 0.  1.
       11    1    4    4    0    0  0.18205942809E+02  0.12331211055E+02 -0.33984707041E+02  0.40478085828E+02  0.00000000000E+00 0. -1.
      -13    1    3    3    0    0 -0.81574051602E+01 -0.13102367461E+02 -0.11278060990E+02  0.19115699091E+02  0.00000000000E+00 0.  1.
       13    1    3    3    0    0  0.14499807245E+02  0.49721819397E+02 -0.40490081707E+03  0.40819992087E+03  0.00000000000E+00 0. -1.
       21    1    1    2  503  502  0.10532316204E+02  0.18960483532E+02 -0.52807023706E+03  0.52851547271E+03  0.00000000000E+00 0. -1.
        2    1    1    2  501    0  0.97908167744E+01 -0.11252089555E+02 -0.17802283566E+02  0.23224790906E+02  0.00000000000E+00 0. -1.
<mgrwt>
<rscale>  2 0.10006742E+03</rscale>
<asrwt>0</asrwt>
<pdfrwt beam="1">  1       21 0.23919210E-02 0.10012888E+03</pdfrwt>
<pdfrwt beam="2">  1        2 0.20793541E+00 0.10012888E+03</pdfrwt>
<totfact> 0.19190874E+05</totfact>
</mgrwt>
</event>
<event>
10   0  0.3368750E-06  0.1956640E+03  0.7546771E-02  0.1177178E+00
        2   -1    0    0  503    0  0.00000000000E+00  0.00000000000E+00  0.15792279229E+04  0.15792279229E+04  0.00000000000E+00 0. -1.
       21   -1    0    0  501  502  0.00000000000E+00  0.00000000000E+00 -0.10289846278E+03  0.10289846278E+03  0.00000000000E+00 0. -1.
       23    2    1    2    0    0  0.10916003929E+02  0.65855780674E+02  0.12957490953E+04  0.13006540327E+04  0.90989294380E+02 0.  0.
       23    2    1    2    0    0  0.25202489854E+02 -0.74317445376E+02  0.19296441759E+03  0.22767177872E+03  0.91874502392E+02 0.  0.
      -11    1    3    3    0    0 -0.26512623279E+02 -0.97870308966E+01  0.29320376360E+03  0.29456264555E+03  0.00000000000E+00 0.  1.
       11    1    3    3    0    0  0.37428627208E+02  0.75642811570E+02  0.10025453317E+04  0.10060913871E+04  0.00000000000E+00 0. -1.
      -13    1    4    4    0    0  0.50574000624E+02 -0.20455249897E+02  0.13016518447E+03  0.14113511978E+03  0.00000000000E+00 0.  1.
       13    1    4    4    0    0 -0.25371510770E+02 -0.53862195479E+02  0.62799233116E+02  0.86536658940E+02  0.00000000000E+00 0. -1.
       21    1    1    2  503  502  0.35188171010E+02  0.30546866285E+01 -0.58766684436E+02  0.68564288730E+02  0.00000000000E+00 0. -1.
        2    1    1    2  501    0 -0.71306664793E+02  0.54069780733E+01  0.46382631619E+02  0.85236285535E+02  0.00000000000E+00 0. -1.
<mgrwt>
<rscale>  2 0.17064381E+03</rscale>
<asrwt>0</asrwt>
<pdfrwt beam="1">  1       21 0.15830533E-01 0.19566397E+03</pdfrwt>
<pdfrwt beam="2">  1        2 0.24295814E+00 0.19566397E+03</pdfrwt>
<totfact> 0.56607515E+03</totfact>
</mgrwt>
</event>
<event>
10   0  0.3368750E-06  0.1054962E+03  0.7546771E-02  0.1270543E+00
       -4   -1    0    0    0  501  0.00000000000E+00  0.00000000000E+00  0.56487632126E+03  0.56487632126E+03  0.00000000000E+00 0.  1.
        4   -1    0    0  502    0  0.00000000000E+00  0.00000000000E+00 -0.58277330247E+02  0.58277330247E+02  0.00000000000E+00 0. -1.
       23    2    1    2    0    0 -0.33423240816E+02  0.19719800209E+02  0.99597204424E+02  0.14130471495E+03  0.92419888499E+02 0.  0.
       23    2    1    2    0    0  0.43097176259E+02 -0.40339228768E+02  0.40221466904E+02  0.11427152698E+03  0.89194144989E+02 0.  0.
      -11    1    3    3    0    0 -0.60371349883E+02  0.32822789724E+02  0.80184959920E+02  0.10560143564E+03  0.00000000000E+00 0.  1.
       11    1    3    3    0    0  0.26948109068E+02 -0.13102989514E+02  0.19412244504E+02  0.35703279306E+02  0.00000000000E+00 0. -1.
      -13    1    4    4    0    0  0.64493484002E+02 -0.10429451585E+02  0.41633379101E+02  0.77469485570E+02  0.00000000000E+00 0. -1.
       13    1    4    4    0    0 -0.21396307743E+02 -0.29909777183E+02 -0.14119121974E+01  0.36802041414E+02  0.00000000000E+00 0.  1.
       21    1    1    2  502  503 -0.88687097598E+01  0.94246390545E+01  0.18742770167E+03  0.18787395026E+03  0.00000000000E+00 0.  1.
       21    1    1    2  503  501 -0.80522568302E+00  0.11194789504E+02  0.17935261802E+03  0.17970345931E+03  0.00000000000E+00 0.  1.
<mgrwt>
<rscale>  2 0.10478552E+03</rscale>
<asrwt>0</asrwt>
<pdfrwt beam="1">  1        4 0.89657431E-02 0.10549620E+03</pdfrwt>
<pdfrwt beam="2">  1       -4 0.86904049E-01 0.10549620E+03</pdfrwt>
<totfact> 0.17199930E+02</totfact>
</mgrwt>
</event>
<event>
10   0  0.3368750E-06  0.3092453E+03  0.7546771E-02  0.1104511E+00
        2   -1    0    0  503    0  0.00000000000E+00  0.00000000000E+00  0.18934545759E+04  0.18934545759E+04  0.00000000000E+00 0. -1.
       21   -1    0    0  501  502  0.00000000000E+00  0.00000000000E+00 -0.50495732239E+02  0.50495732239E+02  0.00000000000E+00 0. -1.
       23    2    1    2    0    0 -0.36817809634E+02  0.13414670475E+03  0.95826202662E+03  0.97241795984E+03  0.89329096387E+02 0.  0.
       23    2    1    2    0    0  0.52368848004E+02 -0.55267668484E+02  0.60282717525E+03  0.61631795898E+03  0.10319986395E+03 0.  0.
      -11    1    4    4    0    0  0.12209541588E+02  0.18965901870E+02  0.32915324192E+03  0.32992519607E+03  0.00000000000E+00 0. -1.
       11    1    4    4    0    0  0.40159306416E+02 -0.74233570354E+02  0.27367393334E+03  0.28639276291E+03  0.00000000000E+00 0.  1.
      -13    1    3    3    0    0  0.51197139289E+01 -0.70533343138E+01  0.12405449918E+02  0.15161008651E+02  0.00000000000E+00 0.  1.
       13    1    3    3    0    0 -0.41937523563E+02  0.14120003906E+03  0.94585657670E+03  0.95725695119E+03  0.00000000000E+00 0. -1.
       21    1    1    2  503  502  0.50539481097E+02 -0.48047925674E+02  0.27298027755E+03  0.28174647157E+03  0.00000000000E+00 0.  1.
        2    1    1    2  501    0 -0.66090519467E+02 -0.30831110587E+02  0.88893642562E+01  0.73467917763E+02  0.00000000000E+00 0. -1.
<mgrwt>
<rscale>  2 0.26442858E+03</rscale>
<asrwt>0</asrwt>
<pdfrwt beam="1">  1       21 0.77685742E-02 0.30924526E+03</pdfrwt>
<pdfrwt beam="2">  1        2 0.29130070E+00 0.30924526E+03</pdfrwt>
<totfact> 0.13328090E+04</totfact>
</mgrwt>
</event>
<event>
10   0  0.3368750E-06  0.1031492E+03  0.7546771E-02  0.1274370E+00
       21   -1    0    0  503  502  0.00000000000E+00  0.00000000000E+00  0.15336385036E+02  0.15336385036E+02  0.00000000000E+00 0.  1.
        2   -1    0    0  502    0  0.00000000000E+00  0.00000000000E+00 -0.20821704675E+04  0.20821704675E+04  0.00000000000E+00 0. -1.
       23    2    1    2    0    0 -0.37221239282E+02  0.16041404819E+02 -0.24352163404E+03  0.26255749664E+03  0.89391864689E+02 0.  0.
       23    2    1    2    0    0  0.28533735778E+02 -0.42978480856E+02 -0.17513451831E+04  0.17544483564E+04  0.90651867502E+02 0.  0.
      -11    1    4    4    0    0  0.28789798006E+02  0.15201585072E+02 -0.26917648534E+03  0.27113819524E+03  0.00000000000E+00 0.  1.
       11    1    4    4    0    0 -0.25606222805E+00 -0.58180065928E+02 -0.14821686977E+04  0.14833101612E+04  0.00000000000E+00 0. -1.
      -13    1    3    3    0    0 -0.17875487169E+02  0.39606885075E+02 -0.21945103371E+03  0.22371185615E+03  0.00000000000E+00 0. -1.
       13    1    3    3    0    0 -0.19345752113E+02 -0.23565480257E+02 -0.24070600336E+02  0.38845640490E+02  0.00000000000E+00 0.  1.
       21    1    1    2  503  501 -0.76359102070E+01  0.80873264615E+01 -0.23217204383E+02  0.25743942071E+02  0.00000000000E+00 0.  1.
        2    1    1    2  501    0  0.16323413711E+02  0.18849749575E+02 -0.48750060929E+02  0.54757057397E+02  0.00000000000E+00 0. -1.
<mgrwt>
<rscale>  2 0.10287174E+03</rscale>
<asrwt>0</asrwt>
<pdfrwt beam="1">  1       21 0.23594439E-02 0.10314925E+03</pdfrwt>
<pdfrwt beam="2">  1        2 0.32033392E+00 0.10314925E+03</pdfrwt>
<totfact> 0.83357394E+04</totfact>
</mgrwt>
</event>
<event>
10   0  0.3368750E-06  0.3077351E+03  0.7546771E-02  0.1125632E+00
        1   -1    0    0  502    0  0.00000000000E+00  0.00000000000E+00  0.26216340450E+04  0.26216340450E+04  0.00000000000E+00 0. -1.
       21   -1    0    0  503  502  0.00000000000E+00  0.00000000000E+00 -0.22238026179E+02  0.22238026179E+02  0.00000000000E+00 0. -1.
       23    2    1    2    0    0 -0.16836426161E+02 -0.37170131253E+02  0.29645003730E+03  0.31296696751E+03  0.91654864770E+02 0.  0.
       23    2    1    2    0    0 -0.96521005712E+02 -0.77092517508E+02  0.13581920131E+04  0.13668899517E+04  0.91885987821E+02 0.  0.
      -11    1    3    3    0    0 -0.43005909762E+02 -0.52655135008E+01  0.66674208942E+02  0.79515306985E+02  0.00000000000E+00 0. -1.
       11    1    3    3    0    0  0.26169483601E+02 -0.31904617752E+02  0.22977582836E+03  0.23345166053E+03  0.00000000000E+00 0.  1.
      -13    1    4    4    0    0 -0.25580519254E+01 -0.30905830755E+02  0.67592155222E+03  0.67663258772E+03  0.00000000000E+00 0. -1.
       13    1    4    4    0    0 -0.93962953786E+02 -0.46186686753E+02  0.68227046087E+03  0.69025736396E+03  0.00000000000E+00 0.  1.
       21    1    1    2  503  501  0.88882342145E+01  0.80958750088E+01  0.58503150123E+01  0.13370493086E+02  0.00000000000E+00 0.  1.
        1    1    1    2  501    0  0.10446919766E+03  0.10616677375E+03  0.93890365340E+03  0.95064465889E+03  0.00000000000E+00 0. -1.
<mgrwt>
<rscale>  2 0.23143737E+03</rscale>
<asrwt>0</asrwt>
<pdfrwt beam="1">  1       21 0.34212348E-02 0.30773509E+03</pdfrwt>
<pdfrwt beam="2">  1        1 0.40332831E+00 0.30773509E+03</pdfrwt>
<totfact> 0.74079184E+03</totfact>
</mgrwt>
</event>
<event>
10   0  0.3368750E-06  0.2023283E+03  0.7546771E-02  0.1182815E+00
       21   -1    0    0  503  502  0.00000000000E+00  0.00000000000E+00  0.76924693665E+02  0.76924693665E+02  0.00000000000E+00 0. -1.
        2   -1    0    0  502    0  0.00000000000E+00  0.00000000000E+00 -0.38665378459E+03  0.38665378459E+03  0.00000000000E+00 0. -1.
       23    2    1    2    0    0  0.53146893404E+02  0.95173158232E+00 -0.87592369630E+02  0.12681972053E+03  0.74735000015E+02 0.  0.
       23    2    1    2    0    0 -0.58520924590E+02 -0.73186804597E+02 -0.19118392846E+03  0.23504458840E+03  0.99567349329E+02 0.  0.
      -11    1    3    3    0    0 -0.12012632734E+01  0.28778733897E+02 -0.40562645501E+02  0.49749238871E+02  0.00000000000E+00 0.  1.
       11    1    3    3    0    0  0.54348156677E+02 -0.27827002315E+02 -0.47029724128E+02  0.77070481662E+02  0.00000000000E+00 0. -1.
      -13    1    4    4    0    0 -0.28244126697E+02 -0.95019549619E+02 -0.13209963267E+03  0.16515676933E+03  0.00000000000E+00 0.  1.
       13    1    4    4    0    0 -0.30276797893E+02  0.21832745022E+02 -0.59084295785E+02  0.69887819069E+02  0.00000000000E+00 0. -1.
       21    1    1    2  503  501 -0.84507183562E+01  0.12629176940E+02  0.17853753002E+02  0.23444983412E+02  0.00000000000E+00 0. -1.
        2    1    1    2  501    0  0.13824749543E+02  0.59605896075E+02 -0.48806545841E+02  0.78269185914E+02  0.00000000000E+00 0. -1.
<mgrwt>
<rscale>  2 0.16532244E+03</rscale>
<asrwt>0</asrwt>
<pdfrwt beam="1">  1       21 0.11834568E-01 0.20232835E+03</pdfrwt>
<pdfrwt beam="2">  1        2 0.59485198E-01 0.20232835E+03</pdfrwt>
<totfact> 0.62105333E+04</totfact>
</mgrwt>
</event>
<event>
10   0  0.3368750E-06  0.9561854E+02  0.7546771E-02  0.1290073E+00
        3   -1    0    0  503    0  0.00000000000E+00  0.00000000000E+00  0.93732000554E+03  0.93732000554E+03  0.00000000000E+00 0. -1.
       21   -1    0    0  501  502  0.00000000000E+00  0.00000000000E+00 -0.15582134590E+02  0.15582134590E+02  0.00000000000E+00 0.  1.
       23    2    1    2    0    0 -0.99259840576E+01  0.17675299707E+02  0.55467764831E+03  0.56259220074E+03  0.91824557821E+02 0.  0.
       23    2    1    2    0    0  0.40578388610E+00 -0.24828617362E+02  0.23560360158E+03  0.25389122176E+03  0.91296607322E+02 0.  0.
      -11    1    4    4    0    0  0.42205671970E+02  0.50227227608E+01  0.12268729608E+03  0.12984113027E+03  0.00000000000E+00 0. -1.
       11    1    4    4    0    0 -0.41799888084E+02 -0.29851340123E+02  0.11291630550E+03  0.12405009149E+03  0.00000000000E+00 0.  1.
      -13    1    3    3    0    0  0.36309704128E+01  0.19225825181E+02  0.54615208812E+03  0.54650244250E+03  0.00000000000E+00 0. -1.
       13    1    3    3    0    0 -0.13556954470E+02 -0.15505254737E+01  0.85255601958E+01  0.16089758246E+02  0.00000000000E+00 0.  1.
       21    1    1    2  503  502 -0.71430548229E+01  0.14939313154E+02  0.81941819160E+02  0.83598253791E+02  0.00000000000E+00 0.  1.
        3    1    1    2  501    0  0.16663254994E+02 -0.77859954987E+01  0.49514801900E+02  0.52820463839E+02  0.00000000000E+00 0. -1.
<mgrwt>
<rscale>  2 0.95491568E+02</rscale>
<asrwt>0</asrwt>
<pdfrwt beam="1">  1       21 0.23972515E-02 0.95618543E+02</pdfrwt>
<pdfrwt beam="2">  1        3 0.14420308E+00 0.95618543E+02</pdfrwt>
<totfact> 0.16325634E+04</totfact>
</mgrwt>
</event>
<event>
10   0  0.3368750E-06  0.1153242E+03  0.7546771E-02  0.1251210E+00
       21   -1    0    0  501  502  0.00000000000E+00  0.00000000000E+00  0.52979321495E+03  0.52979321495E+03  0.00000000000E+00 0. -1.
        3   -1    0    0  503    0  0.00000000000E+00  0.00000000000E+00 -0.12723282767E+03  0.12723282767E+03  0.00000000000E+00 0. -1.
       23    2    1    2    0    0 -0.74386326034E+02  0.11686287375E+02 -0.62553910780E+02  0.13382538819E+03  0.91248824415E+02 0.  0.
       23    2    1    2    0    0  0.52022343953E+02  0.27172617902E+02  0.11239784672E+03  0.15654640445E+03  0.91808634481E+02 0.  0.
      -11    1    3    3    0    0 -0.49209714354E+02  0.13749420087E+02 -0.85561951237E+02  0.99656861474E+02  0.00000000000E+00 0. -1.
       11    1    3    3    0    0 -0.25176611680E+02 -0.20631327119E+01  0.23008040457E+02  0.34168526716E+02  0.00000000000E+00 0.  1.
      -13    1    4    4    0    0 -0.15225739445E+02  0.13639195569E+02 -0.45718054835E+01  0.20946412647E+02  0.00000000000E+00 0. -1.
       13    1    4    4    0    0  0.67248083398E+02  0.13533422334E+02  0.11696965220E+03  0.13559999180E+03  0.00000000000E+00 0.  1.
       21    1    1    2  503  502  0.32657235539E+02 -0.24004089993E+02  0.54643087857E+02  0.68033509537E+02  0.00000000000E+00 0. -1.
        3    1    1    2  501    0 -0.10293253458E+02 -0.14854815284E+02  0.29807336348E+03  0.29862074044E+03  0.00000000000E+00 0. -1.
<mgrwt>
<rscale>  2 0.11521275E+03</rscale>
<asrwt>0</asrwt>
<pdfrwt beam="1">  1       21 0.81506648E-01 0.11532420E+03</pdfrwt>
<pdfrwt beam="2">  1        3 0.19574281E-01 0.11532420E+03</pdfrwt>
<totfact> 0.15186414E+03</totfact>
</mgrwt>
</event>
<event>
10   0  0.3368750E-06  0.9759714E+02  0.7546771E-02  0.1286629E+00
       21   -1    0    0  501  502  0.00000000000E+00  0.00000000000E+00  0.23619736905E+03  0.23619736905E+03  0.00000000000E+00 0. -1.
        4   -1    0    0  503    0  0.00000000000E+00  0.00000000000E+00 -0.37707014859E+03  0.37707014859E+03  0.00000000000E+00 0. -1.
       23    2    1    2    0    0 -0.52611481074E+01 -0.49967545261E+02 -0.18755357420E+03  0.21424213420E+03  0.90547852599E+02 0.  0.
       23    2    1    2    0    0  0.83225737555E+01  0.96871144739E+01 -0.16045793944E+03  0.18582002496E+03  0.92839786329E+02 0.  0.
      -11    1    3    3    0    0  0.27555106424E+02 -0.25508109555E+02 -0.21605762255E+02  0.43321547822E+02  0.00000000000E+00 0.  1.
       11    1    3    3    0    0 -0.32816254532E+02 -0.24459435707E+02 -0.16594781195E+03  0.17092058637E+03  0.00000000000E+00 0. -1.
      -13    1    4    4    0    0 -0.27331234199E+02 -0.27399330623E+02 -0.94892833898E+02  0.10248106950E+03  0.00000000000E+00 0.  1.
       13    1    4    4    0    0  0.35653807955E+02  0.37086445097E+02 -0.65565105541E+02  0.83338955454E+02  0.00000000000E+00 0. -1.
       21    1    1    2  503  502 -0.10663222928E+02  0.42429686502E+01  0.26962271111E+02  0.29303091469E+02  0.00000000000E+00 0. -1.
        4    1    1    2  501    0  0.76017972805E+01  0.36037462137E+02  0.18017646298E+03  0.18390226701E+03  0.00000000000E+00 0. -1.
<mgrwt>
<rscale>  2 0.97048124E+02</rscale>
<asrwt>0</asrwt>
<pdfrwt beam="1">  1       21 0.36338057E-01 0.97597138E+02</pdfrwt>
<pdfrwt beam="2">  1        4 0.58010792E-01 0.97597138E+02</pdfrwt>
<totfact> 0.86104675E+02</totfact>
</mgrwt>
</event>
<event>
10   0  0.3368750E-06  0.1651841E+03  0.7546771E-02  0.1184052E+00
        2   -1    0    0  503    0  0.00000000000E+00  0.00000000000E+00  0.19094820160E+04  0.19094820160E+04  0.00000000000E+00 0. -1.
       21   -1    0    0  501  502  0.00000000000E+00  0.00000000000E+00 -0.36843234655E+03  0.36843234655E+03  0.00000000000E+00 0. -1.
       23    2    1    2    0    0  0.34215744841E+02  0.12801274126E+03  0.16443052086E+04  0.16524331578E+04  0.96113176972E+02 0.  0.
       23    2    1    2    0    0 -0.32619296784E+02 -0.14419464211E+03  0.22160872430E+03  0.28091082290E+03  0.89131085515E+02 0.  0.
      -11    1    4    4    0    0 -0.42002197202E+02 -0.11061766527E+03  0.10165741656E+03  0.15599577809E+03  0.00000000000E+00 0.  1.
       11    1    4    4    0    0  0.93829004181E+01 -0.33576976838E+02  0.11995130774E+03  0.12491504482E+03  0.00000000000E+00 0. -1.
      -13    1    3    3    0    0  0.60842955717E+02  0.12182724609E+03  0.13390662846E+04  0.13459726066E+04  0.00000000000E+00 0. -1.
       13    1    3    3    0    0 -0.26627210876E+02  0.61854951744E+01  0.30523892400E+03  0.30646055119E+03  0.00000000000E+00 0.  1.
       21    1    1    2  503  502  0.74497111651E+01  0.23280693543E+02 -0.55713527491E+01  0.25070477852E+02  0.00000000000E+00 0.  1.
        2    1    1    2  501    0 -0.90461592228E+01 -0.70987926956E+01 -0.31929291069E+03  0.31949990402E+03  0.00000000000E+00 0. -1.
<mgrwt>
<rscale>  2 0.16418442E+03</rscale>
<asrwt>0</asrwt>
<pdfrwt beam="1">  1       21 0.56681899E-01 0.16518410E+03</pdfrwt>
<pdfrwt beam="2">  1        2 0.29376646E+00 0.16518410E+03</pdfrwt>
<totfact> 0.32216987E+02</totfact>
</mgrwt>
</event>
<event>
10   0  0.3368750E-06  0.1077162E+03  0.7546771E-02  0.1267103E+00
       21   -1    0    0  503  502  0.00000000000E+00  0.00000000000E+00  0.12414424564E+03  0.12414424564E+03  0.00000000000E+00 0.  1.
        1   -1    0    0  502    0  0.00000000000E+00  0.00000000000E+00 -0.11543611871E+04  0.11543611871E+04  0.00000000000E+00 0. -1.
       23    2    1    2    0    0 -0.72726592885E+02  0.15240386987E+02 -0.54515135504E+03  0.55699922095E+03  0.86814201204E+02 0.  0.
       23    2    1    2    0    0  0.41258792410E+02 -0.75781394623E+01 -0.58645506473E+03  0.59514433413E+03  0.92236214964E+02 0.  0.
      -11    1    4    4    0    0  0.25643250866E+02  0.41390620647E+02 -0.33185616625E+03  0.33540911567E+03  0.00000000000E+00 0. -1.
       11    1    4    4    0    0  0.15615541545E+02 -0.48968760109E+02 -0.25459889848E+03  0.25973521846E+03  0.00000000000E+00 0.  1.
      -13    1    3    3    0    0 -0.78831018241E+02  0.30257295612E+02 -0.52170955575E+03  0.52849852784E+03  0.00000000000E+00 0. -1.
       13    1    3    3    0    0  0.61044253562E+01 -0.15016908625E+02 -0.23441799293E+02  0.28500693109E+02  0.00000000000E+00 0.  1.
       21    1    1    2  503  501  0.91004510593E+01 -0.19651149581E+02  0.98462423775E+02  0.10081584590E+03  0.00000000000E+00 0.  1.
        1    1    1    2  501    0  0.22367349415E+02  0.11988902056E+02  0.29270544954E+01  0.25546031793E+02  0.00000000000E+00 0. -1.
<mgrwt>
<rscale>  2 0.10654611E+03</rscale>
<asrwt>0</asrwt>
<pdfrwt beam="1">  1       21 0.19099115E-01 0.10771623E+03</pdfrwt>
<pdfrwt beam="2">  1        1 0.17759403E+00 0.10771623E+03</pdfrwt>
<totfact> 0.36591283E+03</totfact>
</mgrwt>
</event>
<event>
10   0  0.3368750E-06  0.1368043E+03  0.7546771E-02  0.1218663E+00
        3   -1    0    0  503    0  0.00000000000E+00  0.00000000000E+00  0.23141875053E+03  0.23141875053E+03  0.00000000000E+00 0. -1.
       21   -1    0    0  501  502  0.00000000000E+00  0.00000000000E+00 -0.19373679833E+03  0.19373679833E+03  0.00000000000E+00 0. -1.
       23    2    1    2    0    0  0.13861151777E+02  0.96196272289E+02  0.10902102221E+03  0.17426067766E+03  0.95054437893E+02 0.  0.
       23    2    1    2    0    0 -0.17099470082E+02 -0.11070358211E+03 -0.16042063529E+02  0.14523256255E+03  0.91035566975E+02 0.  0.
      -11    1    3    3    0    0  0.20306928712E+02  0.42364574901E+01 -0.10555227580E+02  0.23275131687E+02  0.00000000000E+00 0.  1.
       11    1    3    3    0    0 -0.64457769349E+01  0.91959814799E+02  0.11957624979E+03  0.15098554597E+03  0.00000000000E+00 0. -1.
      -13    1    4    4    0    0  0.25334733822E+02 -0.12007407317E+02  0.17057392703E+02  0.32817391946E+02  0.00000000000E+00 0. -1.
       13    1    4    4    0    0 -0.42434203904E+02 -0.98696174794E+02 -0.33099456232E+02  0.11241517061E+03  0.00000000000E+00 0.  1.
       21    1    1    2  503  502 -0.87802702904E+01 -0.61315046916E+01  0.22157160970E+02  0.24609516013E+02  0.00000000000E+00 0.  1.
        3    1    1    2  501    0  0.12018588596E+02  0.20638814513E+02 -0.77454167457E+02  0.81052792628E+02  0.00000000000E+00 0. -1.
<mgrwt>
<rscale>  2 0.13610873E+03</rscale>
<asrwt>0</asrwt>
<pdfrwt beam="1">  1       21 0.29805661E-01 0.13680432E+03</pdfrwt>
<pdfrwt beam="2">  1        3 0.35602885E-01 0.13680432E+03</pdfrwt>
<totfact> 0.41040848E+03</totfact>
</mgrwt>
</event>
<event>
10   0  0.3368750E-06  0.1119146E+03  0.7546771E-02  0.1257702E+00
       -1   -1    0    0    0  501  0.00000000000E+00  0.00000000000E+00  0.23047786185E+03  0.23047786185E+03  0.00000000000E+00 0.  1.
       21   -1    0    0  503  502  0.00000000000E+00  0.00000000000E+00 -0.16933809426E+03  0.16933809426E+03  0.00000000000E+00 0. -1.
       23    2    1    2    0    0  0.27985684956E+02 -0.40921300892E+02 -0.80986601245E+02  0.13241063433E+03  0.92282149272E+02 0.  0.
       23    2    1    2    0    0 -0.17109852448E+02  0.73399332585E+02 -0.15553930566E+01  0.11784580013E+03  0.90581478711E+02 0.  0.
      -11    1    4    4    0    0 -0.42328879010E+02  0.25510248705E+02  0.27352478450E+02  0.56485970511E+02  0.00000000000E+00 0.  1.
       11    1    4    4    0    0  0.25219026561E+02  0.47889083880E+02 -0.28907871506E+02  0.61359829616E+02  0.00000000000E+00 0. -1.
      -13    1    3    3    0    0 -0.13237518065E+02 -0.26303711953E+02  0.10292292788E+02  0.31193724335E+02  0.00000000000E+00 0.  1.
       13    1    3    3    0    0  0.41223203021E+02 -0.14617588940E+02 -0.91278894034E+02  0.10121691000E+03  0.00000000000E+00 0. -1.
       21    1    1    2  503  501 -0.30413139726E+01 -0.11971863774E+02  0.99094377676E+02  0.99861257752E+02  0.00000000000E+00 0.  1.
       -1    1    1    2    0  502 -0.78345185347E+01 -0.20506167918E+02  0.44587384213E+02  0.49698263896E+02  0.00000000000E+00 0.  1.
<mgrwt>
<rscale>  2 0.11156344E+03</rscale>
<asrwt>0</asrwt>
<pdfrwt beam="1">  1       21 0.26052015E-01 0.11191462E+03</pdfrwt>
<pdfrwt beam="2">  1       -1 0.35458133E-01 0.11191462E+03</pdfrwt>
<totfact> 0.98914940E+03</totfact>
</mgrwt>
</event>
<event>
10   0  0.3368750E-06  0.1496409E+03  0.7546771E-02  0.1201378E+00
       21   -1    0    0  503  502  0.00000000000E+00  0.00000000000E+00  0.24917568736E+03  0.24917568736E+03  0.00000000000E+00 0. -1.
       21   -1    0    0  501  503  0.00000000000E+00  0.00000000000E+00 -0.33674857227E+03  0.33674857227E+03  0.00000000000E+00 0. -1.
       23    2    1    2    0    0 -0.56841860290E+02 -0.24068630049E+02 -0.74649912262E+02  0.13297204130E+03  0.91096972137E+02 0.  0.
       23    2    1    2    0    0  0.15464464099E+03  0.36577765752E+02  0.12653290699E+03  0.22362351399E+03  0.93509365974E+02 0.  0.
      -11    1    4    4    0    0 -0.11342494998E+02  0.11495669522E+02  0.15285849529E+02  0.22236452198E+02  0.00000000000E+00 0.  1.
       11    1    4    4    0    0  0.16598713598E+03  0.25082096230E+02  0.11124705746E+03  0.20138706179E+03  0.00000000000E+00 0. -1.
      -13    1    3    3    0    0 -0.34877302749E+02 -0.83537122807E+01 -0.93430015850E+02  0.10007686355E+03  0.00000000000E+00 0. -1.
       13    1    3    3    0    0 -0.21964557541E+02 -0.15714917768E+02  0.18780103587E+02  0.32895177750E+02  0.00000000000E+00 0.  1.
        3    1    1    2  501    0 -0.85518110828E+02  0.32697982602E+02 -0.15495730822E+03  0.17998409018E+03  0.00000000000E+00 0. -1.
       -3    1    1    2    0  502 -0.12284669867E+02 -0.45207118305E+02  0.15501428588E+02  0.49344614169E+02  0.00000000000E+00 0.  1.
<mgrwt>
<rscale>  2 0.14926561E+03</rscale>
<asrwt>0</asrwt>
<pdfrwt beam="1">  1       21 0.38334721E-01 0.14964090E+03</pdfrwt>
<pdfrwt beam="2">  1       21 0.51807473E-01 0.14964090E+03</pdfrwt>
<totfact> 0.23823840E+04</totfact>
</mgrwt>
</event>
<event>
10   0  0.3368750E-06  0.1313762E+03  0.7546771E-02  0.1225645E+00
        3   -1    0    0  503    0  0.00000000000E+00  0.00000000000E+00  0.10289390299E+04  0.10289390299E+04  0.00000000000E+00 0. -1.
       -3   -1    0    0    0  501  0.00000000000E+00  0.00000000000E+00 -0.40611593867E+02  0.40611593867E+02  0.00000000000E+00 0.  1.
       23    2    1    2    0    0  0.58576799871E+02  0.35914926812E+02  0.11201133946E+03  0.16012916980E+03  0.91507854330E+02 0.  0.
       23    2    1    2    0    0 -0.98887720299E+02 -0.20623207231E+02  0.81836381465E+03  0.82954303834E+03  0.90654406625E+02 0.  0.
      -11    1    3    3    0    0  0.51390999342E+02  0.36741510409E+02  0.17790859449E+02  0.65631456485E+02  0.00000000000E+00 0.  1.
       11    1    3    3    0    0  0.71858005298E+01 -0.82658359704E+00  0.94220480006E+02  0.94497713318E+02  0.00000000000E+00 0. -1.
      -13    1    4    4    0    0  0.11416546833E+02 -0.20865849960E+02  0.20102230085E+03  0.20242452093E+03  0.00000000000E+00 0. -1.
       13    1    4    4    0    0 -0.11030426713E+03  0.24264272969E+00  0.61734151380E+03  0.62711851741E+03  0.00000000000E+00 0.  1.
       21    1    1    2  502  501  0.15763023718E+02 -0.82583476160E+01  0.14265460545E+01  0.17852401960E+02  0.00000000000E+00 0.  1.
       21    1    1    2  503  502  0.24547896710E+02 -0.70333719648E+01  0.56525735872E+02  0.62026013655E+02  0.00000000000E+00 0.  1.
<mgrwt>
<rscale>  2 0.13122772E+03</rscale>
<asrwt>0</asrwt>
<pdfrwt beam="1">  1        3 0.15829831E+00 0.13137623E+03</pdfrwt>
<pdfrwt beam="2">  1       -3 0.62479375E-02 0.13137623E+03</pdfrwt>
<totfact> 0.11222233E+02</totfact>
</mgrwt>
</event>
<event>
10   0  0.3368750E-06  0.1600719E+03  0.7546771E-02  0.1205303E+00
       21   -1    0    0  501  502  0.00000000000E+00  0.00000000000E+00  0.66039536362E+03  0.66039536362E+03  0.00000000000E+00 0.  1.
       21   -1    0    0  502  503  0.00000000000E+00  0.00000000000E+00 -0.14984813210E+03  0.14984813210E+03  0.00000000000E+00 0.  1.
       23    2    1    2    0    0 -0.17666710707E+02 -0.22069239621E+02  0.14968168862E+03  0.18503706815E+03  0.10504734492E+03 0.  0.
       23    2    1    2    0    0  0.70894951268E+02  0.32128230024E+02  0.28965515292E+03  0.31319974032E+03  0.90197851632E+02 0.  0.
      -11    1    3    3    0    0  0.30860284859E+02 -0.15433716847E+02  0.12599000234E+03  0.13062938983E+03  0.00000000000E+00 0.  1.
       11    1    3    3    0    0 -0.48526995567E+02 -0.66355227743E+01  0.23691686283E+02  0.54407678320E+02  0.00000000000E+00 0. -1.
      -13    1    4    4    0    0  0.38037554609E+02 -0.17959704947E+02  0.20634507510E+03  0.21058892796E+03  0.00000000000E+00 0.  1.
       13    1    4    4    0    0  0.32857396659E+02  0.50087934971E+02  0.83310077823E+02  0.10261081235E+03  0.00000000000E+00 0. -1.
        3    1    1    2  501    0 -0.23705045778E+02 -0.27654017270E+02  0.18736582997E+03  0.19087333000E+03  0.00000000000E+00 0. -1.
       -3    1    1    2    0  503 -0.29523194783E+02  0.17595026867E+02 -0.11615543999E+03  0.12113335725E+03  0.00000000000E+00 0.  1.
<mgrwt>
<rscale>  2 0.14613597E+03</rscale>
<asrwt>0</asrwt>
<pdfrwt beam="1">  1       21 0.10159929E+00 0.16007189E+03</pdfrwt>
<pdfrwt beam="2">  1       21 0.23053559E-01 0.16007189E+03</pdfrwt>
<totfact> 0.14291061E+04</totfact>
</mgrwt>
</event>
<event>
10   0  0.3368750E-06  0.1027421E+03  0.7546771E-02  0.1276796E+00
        2   -1    0    0  503    0  0.00000000000E+00  0.00000000000E+00  0.14564674504E+04  0.14564674504E+04  0.00000000000E+00 0. -1.
       -2   -1    0    0    0  501  0.00000000000E+00  0.00000000000E+00 -0.90818346935E+02  0.90818346935E+02  0.00000000000E+00 0.  1.
       23    2    1    2    0    0 -0.16196778610E+02 -0.23908941315E+02  0.17758989725E+03  0.20160801263E+03  0.90959584655E+02 0.  0.
       23    2    1    2    0    0 -0.58721099870E+02 -0.15134562200E+02  0.12349797383E+04  0.12394701096E+04  0.86220507517E+02 0.  0.
      -11    1    4    4    0    0 -0.44910968966E+02  0.13942110322E+02  0.10875932648E+04  0.10886094282E+04  0.00000000000E+00 0. -1.
       11    1    4    4    0    0 -0.13810130903E+02 -0.29076672522E+02  0.14738647349E+03  0.15086068132E+03  0.00000000000E+00 0.  1.
      -13    1    3    3    0    0  0.15712626874E+02 -0.44122033752E+02  0.14269154884E+03  0.15018161877E+03  0.00000000000E+00 0.  1.
       13    1    3    3    0    0 -0.31909405484E+02  0.20213092438E+02  0.34898348414E+02  0.51426393868E+02  0.00000000000E+00 0. -1.
       21    1    1    2  502  501  0.42413549710E+02  0.14641500806E+02 -0.47791236882E+02  0.65553680808E+02  0.00000000000E+00 0.  1.
       21    1    1    2  503  502  0.32504328769E+02  0.24402002709E+02  0.87070474327E+00  0.40653994290E+02  0.00000000000E+00 0. -1.
<mgrwt>
<rscale>  2 0.10168307E+03</rscale>
<asrwt>0</asrwt>
<pdfrwt beam="1">  1        2 0.22407192E+00 0.10274207E+03</pdfrwt>
<pdfrwt beam="2">  1       -2 0.13972053E-01 0.10274207E+03</pdfrwt>
<totfact> 0.57320169E+02</totfact>
</mgrwt>
</event>
<event>
10   0  0.3368750E-06  0.9771445E+02  0.7546771E-02  0.1285879E+00
       21   -1    0    0  501  502  0.00000000000E+00  0.00000000000E+00  0.43664978504E+03  0.43664978504E+03  0.00000000000E+00 0.  1.
       -4   -1    0    0    0  501  0.00000000000E+00  0.00000000000E+00 -0.78233560273E+02  0.78233560273E+02  0.00000000000E+00 0.  1.
       23    2    1    2    0    0 -0.13423840369E+02 -0.51228102719E+01  0.40936261288E+02  0.99319624697E+02  0.89342977824E+02 0.  0.
       23    2    1    2    0    0 -0.27989539366E+02  0.74520025210E+02  0.46313127545E+02  0.12928020450E+03  0.90729361411E+02 0.  0.
      -11    1    3    3    0    0  0.27010290625E+02 -0.95610793879E+00 -0.14426835273E+02  0.30636636859E+02  0.00000000000E+00 0. -1.
       11    1    3    3    0    0 -0.40434130994E+02 -0.41667023331E+01  0.55363096561E+02  0.68682987838E+02  0.00000000000E+00 0.  1.
      -13    1    4    4    0    0 -0.32478480259E+02  0.32126279746E+02  0.67632660781E+02  0.81615723574E+02  0.00000000000E+00 0. -1.
       13    1    4    4    0    0  0.44889408929E+01  0.42393745463E+02 -0.21319533236E+02  0.47664480928E+02  0.00000000000E+00 0.  1.
       21    1    1    2  503  502 -0.31450030650E+01 -0.28975749279E+02  0.12218774082E+03  0.12561579955E+03  0.00000000000E+00 0.  1.
       -4    1    1    2    0  503  0.44558382800E+02 -0.40421465659E+02  0.14897909511E+03  0.16066771656E+03  0.00000000000E+00 0.  1.
<mgrwt>
<rscale>  2 0.97391376E+02</rscale>
<asrwt>0</asrwt>
<pdfrwt beam="1">  1       21 0.67176890E-01 0.97714451E+02</pdfrwt>
<pdfrwt beam="2">  1       -4 0.12035932E-01 0.97714451E+02</pdfrwt>
<totfact> 0.45577614E+03</totfact>
</mgrwt>
</event>
<event>
10   0  0.3368750E-06  0.3023049E+03  0.7546771E-02  0.1084094E+00
        2   -1    0    0  502    0  0.00000000000E+00  0.00000000000E+00  0.25783818525E+02  0.25783818525E+02  0.00000000000E+00 0. -1.
        1   -1    0    0  501    0  0.00000000000E+00  0.00000000000E+00 -0.16787289709E+04  0.16787289709E+04  0.00000000000E+00 0. -1.
       23    2    1    2    0    0  0.32388467265E+02  0.41235198122E+02 -0.12915172090E+04  0.12962527557E+04  0.97494364531E+02 0.  0.
       23    2    1    2    0    0 -0.23904336755E+02 -0.17053008453E+02 -0.23100707112E+03  0.24990179132E+03  0.90688565875E+02 0.  0.
      -11    1    4    4    0    0  0.72143670381E+01  0.15210292100E+02 -0.18465474348E+03  0.18542053384E+03  0.00000000000E+00 0. -1.
       11    1    4    4    0    0 -0.31118703793E+02 -0.32263300553E+02 -0.46352327641E+02  0.64481257479E+02  0.00000000000E+00 0.  1.
      -13    1    3    3    0    0  0.64778928173E+02  0.41300767296E+02 -0.80459050753E+03  0.80824992899E+03  0.00000000000E+00 0. -1.
       13    1    3    3    0    0 -0.32390460908E+02 -0.65569173799E-01 -0.48692670151E+03  0.48800282674E+03  0.00000000000E+00 0.  1.
        2    1    1    2  501    0 -0.86575116026E+01  0.78984375709E+01  0.93255210963E+01  0.14976754219E+02  0.00000000000E+00 0. -1.
        1    1    1    2  502    0  0.17338109278E+00 -0.32080627240E+02 -0.13974639335E+03  0.14338148820E+03  0.00000000000E+00 0. -1.
<mgrwt>
<rscale>  2 0.30230485E+03</rscale>
<asrwt>0</asrwt>
<pdfrwt beam="1">  1        2 0.39667413E-02 0.30230485E+03</pdfrwt>
<pdfrwt beam="2">  1        1 0.25826600E+00 0.30230485E+03</pdfrwt>
<totfact> 0.15815030E+03</totfact>
</mgrwt>
</event>
<event>
10   0  0.3368750E-06  0.3232028E+03  0.7546771E-02  0.1102040E+00
       21   -1    0    0  503  502  0.00000000000E+00  0.00000000000E+00  0.10275603859E+03  0.10275603859E+03  0.00000000000E+00 0. -1.
       -3   -1    0    0    0  501  0.00000000000E+00  0.00000000000E+00 -0.11441117404E+04  0.11441117404E+04  0.00000000000E+00 0.  1.
       23    2    1    2    0    0 -0.79010478464E+02  0.52697700977E+02 -0.48794951718E+03  0.51061830506E+03  0.11669026843E+03 0.  0.
       23    2    1    2    0    0 -0.66056944983E+02  0.30052746543E+01 -0.30338518325E+03  0.32391465987E+03  0.92225732893E+02 0.  0.
      -11    1    3    3    0    0  0.15818159750E+02  0.52831027748E+02 -0.16024409835E+03  0.16946829416E+03  0.00000000000E+00 0.  1.
       11    1    3    3    0    0 -0.94828638214E+02 -0.13332677025E+00 -0.32770541883E+03  0.34115001090E+03  0.00000000000E+00 0. -1.
      -13    1    4    4    0    0 -0.33376348081E+02 -0.43936285937E+02 -0.12643679314E+03  0.13795158750E+03  0.00000000000E+00 0.  1.
       13    1    4    4    0    0 -0.32680596903E+02  0.46941560592E+02 -0.17694839011E+03  0.18596307238E+03  0.00000000000E+00 0. -1.
       21    1    1    2  503  501 -0.63141950008E+02 -0.48462385858E+02  0.88013391510E+01  0.80081035612E+02  0.00000000000E+00 0. -1.
       -3    1    1    2    0  502  0.20820937346E+03 -0.72405897740E+01 -0.25882234048E+03  0.33225377841E+03  0.00000000000E+00 0.  1.
<mgrwt>
<rscale>  2 0.26867620E+03</rscale>
<asrwt>0</asrwt>
<pdfrwt beam="1">  1       21 0.15808621E-01 0.32320285E+03</pdfrwt>
<pdfrwt beam="2">  1       -3 0.17601719E+00 0.32320285E+03</pdfrwt>
<totfact> 0.39080145E+02</totfact>
</mgrwt>
</event>
<event>
10   0  0.3368750E-06  0.1914078E+03  0.7546771E-02  0.1157831E+00
       -1   -1    0    0    0  501  0.00000000000E+00  0.00000000000E+00  0.24335147826E+03  0.24335147826E+03  0.00000000000E+00 0.  1.
        1   -1    0    0  503    0  0.00000000000E+00  0.00000000000E+00 -0.32289785844E+03  0.32289785844E+03  0.00000000000E+00 0. -1.
       23    2    1    2    0    0  0.21363088150E+02 -0.14308456031E+03 -0.79067505658E+02  0.18749445656E+03  0.89291252962E+02 0.  0.
       23    2    1    2    0    0 -0.34094712569E+02  0.15983399846E+03  0.10564044169E+03  0.21658909797E+03  0.95087212346E+02 0.  0.
      -11    1    3    3    0    0  0.43672502775E+02 -0.11053388363E+03 -0.26507069424E+02  0.12176884519E+03  0.00000000000E+00 0. -1.
       11    1    3    3    0    0 -0.22309414625E+02 -0.32550676681E+02 -0.52560436234E+02  0.65725611373E+02  0.00000000000E+00 0.  1.
      -13    1    4    4    0    0  0.17585575003E+02  0.12281126274E+03  0.82238066756E+02  0.14884541756E+03  0.00000000000E+00 0.  1.
       13    1    4    4    0    0 -0.51680287572E+02  0.37022735719E+02  0.23402374929E+02  0.67743680414E+02  0.00000000000E+00 0. -1.
       21    1    1    2  502  501 -0.44428478753E+01  0.23547355286E+02  0.18370450273E+02  0.30194209403E+02  0.00000000000E+00 0.  1.
       21    1    1    2  503  502  0.17174472294E+02 -0.40296793432E+02 -0.12448976648E+03  0.13197157276E+03  0.00000000000E+00 0. -1.
<mgrwt>
<rscale>  2 0.19070086E+03</rscale>
<asrwt>0</asrwt>
<pdfrwt beam="1">  1        1 0.49676594E-01 0.19140782E+03</pdfrwt>
<pdfrwt beam="2">  1       -1 0.37438689E-01 0.19140782E+03</pdfrwt>
<totfact> 0.55752070E+02</totfact>
</mgrwt>
</event>
<event>
10   0  0.3368750E-06  0.1039387E+03  0.7546771E-02  0.1275398E+00
        1   -1    0    0  502    0  0.00000000000E+00  0.00000000000E+00  0.35054339207E+04  0.35054339207E+04  0.00000000000E+00 0. -1.
       -1   -1    0    0    0  501  0.00000000000E+00  0.00000000000E+00 -0.72156610322E+01  0.72156610323E+01  0.00000000000E+00 0.  1.
       23    2    1    2    0    0 -0.23971963172E+01 -0.89486390680E+00  0.59971211129E+03  0.60720255039E+03  0.95046164804E+02 0.  0.
       23    2    1    2    0    0  0.30736565474E+02  0.43116725577E+02  0.25943405807E+04  0.25963820900E+04  0.88278649864E+02 0.  0.
      -11    1    3    3    0    0  0.29216961551E+02  0.12401428288E+02  0.75905663969E+02  0.82274516640E+02  0.00000000000E+00 0. -1.
       11    1    3    3    0    0 -0.31614157868E+02 -0.13296292195E+02  0.52380644732E+03  0.52492803375E+03  0.00000000000E+00 0.  1.
      -13    1    4    4    0    0 -0.99711304308E+01 -0.17264619034E+02  0.11796613786E+04  0.11798298431E+04  0.00000000000E+00 0.  1.
       13    1    4    4    0    0  0.40707695905E+02  0.60381344611E+02  0.14146792021E+04  0.14165522469E+04  0.00000000000E+00 0. -1.
       21    1    1    2  502  503 -0.75007541493E+01 -0.99007619671E+01  0.13562757889E+03  0.13619517816E+03  0.00000000000E+00 0. -1.
       21    1    1    2  503  501 -0.20838615008E+02 -0.32321099703E+02  0.16853798877E+03  0.17286976318E+03  0.00000000000E+00 0.  1.
<mgrwt>
<rscale>  2 0.10236585E+03</rscale>
<asrwt>0</asrwt>
<pdfrwt beam="1">  1        1 0.53929753E+00 0.10393873E+03</pdfrwt>
<pdfrwt beam="2">  1       -1 0.11101017E-02 0.10393873E+03</pdfrwt>
<totfact> 0.52545857E+02</totfact>
</mgrwt>
</event>
<event>
10   0  0.3368750E-06  0.7426837E+03  0.7546771E-02  0.9949860E-01
        1   -1    0    0  503    0  0.00000000000E+00  0.00000000000E+00  0.58372663291E+03  0.58372663291E+03  0.00000000000E+00 0. -1.
       21   -1    0    0  501  502  0.00000000000E+00  0.00000000000E+00 -0.66247881469E+03  0.66247881469E+03  0.00000000000E+00 0. -1.
       23    2    1    2    0    0  0.24864881591E+03  0.76694616192E+02 -0.33616172936E+03  0.43468264489E+03  0.90752386627E+02 0.  0.
       23    2    1    2    0    0  0.12666068308E+03  0.99104661320E+02  0.31517117515E+03  0.36578053154E+03  0.92724673501E+02 0.  0.
      -11    1    4    4    0    0  0.89007897224E+02  0.13426574248E+02  0.18161604240E+03  0.20269944628E+03  0.00000000000E+00 0. -1.
       11    1    4    4    0    0  0.37652785857E+02  0.85678087073E+02  0.13355513275E+03  0.16308108527E+03  0.00000000000E+00 0.  1.
      -13    1    3    3    0    0  0.45444356774E+02 -0.18428910444E+02 -0.83009862973E+02  0.96412922648E+02  0.00000000000E+00 0.  1.
       13    1    3    3    0    0  0.20320445914E+03  0.95123526636E+02 -0.25315186639E+03  0.33826972224E+03  0.00000000000E+00 0. -1.
       21    1    1    2  503  502 -0.21276238398E+02  0.21791067320E+02  0.14798966925E+02  0.33860572313E+02  0.00000000000E+00 0.  1.
        1    1    1    2  501    0 -0.35403326059E+03 -0.19759034483E+03 -0.72560594502E+02  0.41188169886E+03  0.00000000000E+00 0. -1.
<mgrwt>
<rscale>  2 0.57904524E+03</rscale>
<asrwt>0</asrwt>
<pdfrwt beam="1">  1       21 0.10191982E+00 0.74268367E+03</pdfrwt>
<pdfrwt beam="2">  1        1 0.89804097E-01 0.74268367E+03</pdfrwt>
<totfact> 0.26558917E+02</totfact>
</mgrwt>
</event>
<event>
10   0  0.3368750E-06  0.2537683E+03  0.7546771E-02  0.1111101E+00
        1   -1    0    0  503    0  0.00000000000E+00  0.00000000000E+00  0.34377087651E+03  0.34377087651E+03  0.00000000000E+00 0. -1.
       -1   -1    0    0    0  501  0.00000000000E+00  0.00000000000E+00 -0.64157486835E+03  0.64157486835E+03  0.00000000000E+00 0.  1.
       23    2    1    2    0    0  0.27580463883E+03 -0.10858050267E+02 -0.31088213063E+03  0.42537477746E+03  0.90055017050E+02 0.  0.
       23    2    1    2    0    0 -0.11394698021E+03  0.22318982343E+03 -0.44661879724E+02  0.27093542398E+03  0.92810068868E+02 0.  0.
      -11    1    4    4    0    0 -0.20614018347E+02  0.93700730518E+02 -0.55693691564E+02  0.11093489952E+03  0.00000000000E+00 0.  1.
       11    1    4    4    0    0 -0.93332961861E+02  0.12948909291E+03  0.11031811840E+02  0.16000052445E+03  0.00000000000E+00 0. -1.
      -13    1    3    3    0    0  0.19810356068E+03  0.11770912409E+02 -0.16306552326E+03  0.25685392738E+03  0.00000000000E+00 0.  1.
       13    1    3    3    0    0  0.77701078150E+02 -0.22628962676E+02 -0.14781660737E+03  0.16852085008E+03  0.00000000000E+00 0. -1.
       21    1    1    2  502  501 -0.14746076828E+03 -0.21347869617E+03  0.34593514256E+02  0.26175282831E+03  0.00000000000E+00 0.  1.
       21    1    1    2  503  502 -0.14396890346E+02  0.11469230076E+01  0.23146504264E+02  0.27282715108E+02  0.00000000000E+00 0.  1.
<mgrwt>
<rscale>  2 0.25351926E+03</rscale>
<asrwt>0</asrwt>
<pdfrwt beam="1">  1        1 0.52887827E-01 0.25376828E+03</pdfrwt>
<pdfrwt beam="2">  1       -1 0.98703826E-01 0.25376828E+03</pdfrwt>
<totfact> 0.77546853E+01</totfact>
</mgrwt>
</event>
<event>
10   0  0.3368750E-06  0.1428862E+03  0.7546771E-02  0.1231603E+00
        2   -1    0    0  503    0  0.00000000000E+00  0.00000000000E+00  0.11769805106E+04  0.11769805106E+04  0.00000000000E+00 0. -1.
       21   -1    0    0  501  502  0.00000000000E+00  0.00000000000E+00 -0.16865240432E+03  0.16865240432E+03  0.00000000000E+00 0. -1.
       23    2    1    2    0    0 -0.20913729684E+01  0.59515142855E+01  0.28223879746E+03  0.29610505597E+03  0.89329004315E+02 0.  0.
       23    2    1    2    0    0  0.58868368900E+02  0.76015111914E+02  0.80196044435E+03  0.81332982800E+03  0.95504307325E+02 0.  0.
      -11    1    3    3    0    0  0.39382415049E+02  0.11611810528E+02  0.19587530230E+03  0.20013231326E+03  0.00000000000E+00 0. -1.
       11    1    3    3    0    0 -0.41473788017E+02 -0.56602962427E+01  0.86363495160E+02  0.95972742704E+02  0.00000000000E+00 0.  1.
      -13    1    4    4    0    0 -0.24777718415E+02  0.18259286313E+02  0.12247081248E+03  0.12627920167E+03  0.00000000000E+00 0.  1.
       13    1    4    4    0    0  0.83646087315E+02  0.57755825601E+02  0.67948963187E+03  0.68705062632E+03  0.00000000000E+00 0. -1.
       21    1    1    2  503  502 -0.63499821894E+01  0.11881852226E+02  0.61158716166E+02  0.62624989016E+02  0.00000000000E+00 0.  1.
        2    1    1    2  501    0 -0.50427013742E+02 -0.93848478425E+02 -0.13702985172E+03  0.17357304192E+03  0.00000000000E+00 0. -1.
<mgrwt>
<rscale>  2 0.12724394E+03</rscale>
<asrwt>0</asrwt>
<pdfrwt beam="1">  1       21 0.25946524E-01 0.14288620E+03</pdfrwt>
<pdfrwt beam="2">  1        2 0.18107392E+00 0.14288620E+03</pdfrwt>
<totfact> 0.38044675E+03</totfact>
</mgrwt>
</event>
<event>
10   0  0.3368750E-06  0.1332348E+03  0.7546771E-02  0.1227536E+00
       -2   -1    0    0    0  501  0.00000000000E+00  0.00000000000E+00  0.57085682915E+02  0.57085682915E+02  0.00000000000E+00 0.  1.
        2   -1    0    0  503    0  0.00000000000E+00  0.00000000000E+00 -0.34447801566E+04  0.34447801566E+04  0.00000000000E+00 0. -1.
       23    2    1    2    0    0 -0.41335856350E+02 -0.10643758698E+03 -0.18461506759E+04  0.18519752059E+04  0.92207550081E+02 0.  0.
       23    2    1    2    0    0  0.33725575990E+02  0.36880616934E+02 -0.14871462304E+04  0.14919184640E+04  0.10825524528E+03 0.  0.
      -11    1    4    4    0    0 -0.64320381246E+01  0.61331421698E+02 -0.52239455346E+03  0.52602184734E+03  0.00000000000E+00 0. -1.
       11    1    4    4    0    0  0.40157614115E+02 -0.24450804763E+02 -0.96475167697E+03  0.96589661664E+03  0.00000000000E+00 0.  1.
      -13    1    3    3    0    0 -0.24831052230E+02 -0.21478969151E+02 -0.14699987133E+03  0.15062167653E+03  0.00000000000E+00 0.  1.
       13    1    3    3    0    0 -0.16504804120E+02 -0.84958617832E+02 -0.16991508046E+04  0.17013535294E+04  0.00000000000E+00 0. -1.
       21    1    1    2  502  501 -0.41959197516E+02 -0.65246471960E+01 -0.52000348020E+02  0.67135545514E+02  0.00000000000E+00 0. -1.
       21    1    1    2  503  502  0.49569477875E+02  0.76081617244E+02 -0.23972193604E+01  0.90836624112E+02  0.00000000000E+00 0.  1.
<mgrwt>
<rscale>  2 0.12994619E+03</rscale>
<asrwt>0</asrwt>
<pdfrwt beam="1">  1        2 0.52996618E+00 0.13323483E+03</pdfrwt>
<pdfrwt beam="2">  1       -2 0.87824128E-02 0.13323483E+03</pdfrwt>
<totfact> 0.97526259E+01</totfact>
</mgrwt>
</event>
<event>
10   0  0.3368750E-06  0.1274744E+03  0.7546771E-02  0.1231799E+00
       -1   -1    0    0    0  501  0.00000000000E+00  0.00000000000E+00  0.37886942741E+03  0.37886942741E+03  0.00000000000E+00 0.  1.
        1   -1    0    0  503    0  0.00000000000E+00  0.00000000000E+00 -0.42718774510E+03  0.42718774510E+03  0.00000000000E+00 0. -1.
       23    2    1    2    0    0  0.56490800580E+02 -0.16073786947E+02  0.90480308021E+02  0.14004012994E+03  0.89302713714E+02 0.  0.
       23    2    1    2    0    0 -0.83388520994E+02  0.38288640657E+02 -0.38927639774E+03  0.41023533635E+03  0.91308553346E+02 0.  0.
      -11    1    3    3    0    0  0.26857889580E+02  0.10856217548E+02  0.95396293717E+02  0.99697826190E+02  0.00000000000E+00 0.  1.
       11    1    3    3    0    0  0.29632911000E+02 -0.26930004494E+02 -0.49159856958E+01  0.40342303749E+02  0.00000000000E+00 0. -1.
      -13    1    4    4    0    0 -0.25392239269E+02  0.60651708334E+02 -0.16847027039E+03  0.18084697273E+03  0.00000000000E+00 0.  1.
       13    1    4    4    0    0 -0.57996281725E+02 -0.22363067676E+02 -0.22080612735E+03  0.22938836362E+03  0.00000000000E+00 0. -1.
       21    1    1    2  502  501  0.11589519187E+02  0.35912257045E+01  0.15998065823E+03  0.16044009743E+03  0.00000000000E+00 0.  1.
       21    1    1    2  503  502  0.15308201227E+02 -0.25806079415E+02  0.90497113802E+02  0.95341608787E+02  0.00000000000E+00 0. -1.
<mgrwt>
<rscale>  2 0.12711565E+03</rscale>
<asrwt>0</asrwt>
<pdfrwt beam="1">  1        1 0.65721192E-01 0.12747440E+03</pdfrwt>
<pdfrwt beam="2">  1       -1 0.58287604E-01 0.12747440E+03</pdfrwt>
<totfact> 0.17701085E+02</totfact>
</mgrwt>
</event>
<event>
10   0  0.3368750E-06  0.1187394E+03  0.7546771E-02  0.1249232E+00
        2   -1    0    0  502    0  0.00000000000E+00  0.00000000000E+00  0.65998123809E+03  0.65998123809E+03  0.00000000000E+00 0. -1.
       -2   -1    0    0    0  501  0.00000000000E+00  0.00000000000E+00 -0.46301027997E+02  0.46301027997E+02  0.00000000000E+00 0.  1.
       23    2    1    2    0    0  0.37907150931E+02 -0.61498401350E+01  0.14494171919E+03  0.17209964277E+03  0.84471370625E+02 0.  0.
       23    2    1    2    0    0 -0.10481948860E+03 -0.66335153012E+01  0.14662950504E+03  0.20439587206E+03  0.96157849662E+02 0.  0.
      -11    1    3    3    0    0 -0.25642553679E+02 -0.12574609132E+02  0.51976526673E+02  0.59306160548E+02  0.00000000000E+00 0.  1.
       11    1    3    3    0    0  0.63549704609E+02  0.64247689967E+01  0.92965192516E+02  0.11279348222E+03  0.00000000000E+00 0. -1.
      -13    1    4    4    0    0 -0.10924582956E+03 -0.32984531742E+02  0.12973579430E+03  0.17278312108E+03  0.00000000000E+00 0.  1.
       13    1    4    4    0    0  0.44263409556E+01  0.26351016440E+02  0.16893710745E+02  0.31612750979E+02  0.00000000000E+00 0. -1.
       21    1    1    2  502  503  0.29453427961E+02  0.12645833129E+02  0.17953888796E+03  0.18237772288E+03  0.00000000000E+00 0. -1.
       21    1    1    2  503  501  0.37458909709E+02  0.13752230704E+00  0.14257009791E+03  0.14740902837E+03  0.00000000000E+00 0. -1.
<mgrwt>
<rscale>  2 0.11635638E+03</rscale>
<asrwt>0</asrwt>
<pdfrwt beam="1">  1        2 0.10153558E+00 0.11873944E+03</pdfrwt>
<pdfrwt beam="2">  1       -2 0.71232351E-02 0.11873944E+03</pdfrwt>
<totfact> 0.49170068E+03</totfact>
</mgrwt>
</event>
<event>
10   0  0.3368750E-06  0.1833074E+03  0.7546771E-02  0.1184770E+00
        1   -1    0    0  503    0  0.00000000000E+00  0.00000000000E+00  0.18346020703E+04  0.18346020703E+04  0.00000000000E+00 0. -1.
       21   -1    0    0  501  502  0.00000000000E+00  0.00000000000E+00 -0.52350853783E+02  0.52350853783E+02  0.00000000000E+00 0. -1.
       23    2    1    2    0    0  0.67160873533E+02  0.79004578465E+01  0.86221597059E+03  0.86963822369E+03  0.91001428506E+02 0.  0.
       23    2    1    2    0    0 -0.56952741178E+02  0.32944283792E+02  0.66680990854E+03  0.67697382620E+03  0.96587611366E+02 0.  0.
      -11    1    3    3    0    0  0.66438075168E+02 -0.31801246878E+02  0.56608056666E+03  0.57085247226E+03  0.00000000000E+00 0. -1.
       11    1    3    3    0    0  0.72279836555E+00  0.39701704724E+02  0.29613540393E+03  0.29878575143E+03  0.00000000000E+00 0.  1.
      -13    1    4    4    0    0 -0.67502209733E+02  0.53833011481E+02  0.40393462575E+03  0.41305898286E+03  0.00000000000E+00 0. -1.
       13    1    4    4    0    0  0.10549468555E+02 -0.20888727689E+02  0.26287528279E+03  0.26391484334E+03  0.00000000000E+00 0.  1.
       21    1    1    2  503  502  0.11580833208E+02  0.25567262549E+02 -0.34369704772E+02  0.44374285551E+02  0.00000000000E+00 0. -1.
        1    1    1    2  501    0 -0.21788965563E+02 -0.66412004188E+02  0.28759504214E+03  0.29596658863E+03  0.00000000000E+00 0. -1.
<mgrwt>
<rscale>  2 0.16352801E+03</rscale>
<asrwt>0</asrwt>
<pdfrwt beam="1">  1       21 0.80539775E-02 0.18330742E+03</pdfrwt>
<pdfrwt beam="2">  1        1 0.28224647E+00 0.18330742E+03</pdfrwt>
<totfact> 0.58755471E+03</totfact>
</mgrwt>
</event>
<event>
10   0  0.3368750E-06  0.1818213E+03  0.7546771E-02  0.1166489E+00
        1   -1    0    0  502    0  0.00000000000E+00  0.00000000000E+00  0.21913139887E+03  0.21913139887E+03  0.00000000000E+00 0. -1.
       -1   -1    0    0    0  501  0.00000000000E+00  0.00000000000E+00 -0.33548137637E+03  0.33548137637E+03  0.00000000000E+00 0.  1.
       23    2    1    2    0    0 -0.17002467153E+02 -0.15118113060E+03 -0.23210153869E+03  0.29179614089E+03  0.90161219157E+02 0.  0.
       23    2    1    2    0    0 -0.58686294063E+00  0.17723047708E+03  0.10662716382E+03  0.22708450475E+03  0.93739179733E+02 0.  0.
      -11    1    3    3    0    0  0.29977022658E+02 -0.60994408002E+02 -0.54389718526E+02  0.87047005556E+02  0.00000000000E+00 0. -1.
       11    1    3    3    0    0 -0.46979489810E+02 -0.90186722597E+02 -0.17771182016E+03  0.20474913534E+03  0.00000000000E+00 0.  1.
      -13    1    4    4    0    0  0.39460791168E+02  0.14008231651E+03  0.71590240959E+02  0.16218930926E+03  0.00000000000E+00 0. -1.
       13    1    4    4    0    0 -0.40047654109E+02  0.37148160575E+02  0.35036922859E+02  0.64895195486E+02  0.00000000000E+00 0.  1.
        4    1    1    2  502    0  0.65760615765E+01 -0.20535338314E+02  0.91294348358E+01  0.23415620555E+02  0.00000000000E+00 0.  1.
       -4    1    1    2    0  501  0.11013268517E+02 -0.55140081695E+01 -0.50374643636E-02  0.12316509038E+02  0.00000000000E+00 0. -1.
<mgrwt>
<rscale>  2 0.18136494E+03</rscale>
<asrwt>0</asrwt>
<pdfrwt beam="1">  1        1 0.33712523E-01 0.18182128E+03</pdfrwt>
<pdfrwt beam="2">  1       -1 0.51612519E-01 0.18182128E+03</pdfrwt>
<totfact> 0.50829733E+02</totfact>
</mgrwt>
</event>
